thermo     5000
thermo_style custom step temp press density
thermo_modify norm no flush yes
dump 1 all atom 10000 hda_decompr77.dump
run 7000000

CITE-CITE-CITE-CITE-CITE-CITE-CITE-CITE-CITE-CITE-CITE-CITE-CITE

Your simulation uses code contributions which should be cited:

- GPU package (short-range, long-range and three-body potentials):

@Article{Brown11,
 author = {W. M. Brown, P. Wang, S. J. Plimpton, A. N. Tharrington},
 title = {Implementing Molecular Dynamics on Hybrid High Performance Computers - Short Range Forces},
 journal = {Comp.~Phys.~Comm.},
 year =    2011,
 volume =  182,
 pages =   {898--911}
}

@Article{Brown12,
 author = {W. M. Brown, A. Kohlmeyer, S. J. Plimpton, A. N. Tharrington},
 title = {Implementing Molecular Dynamics on Hybrid High Performance Computers - Particle-Particle Particle-Mesh},
 journal = {Comp.~Phys.~Comm.},
 year =    2012,
 volume =  183,
 pages =   {449--459}
}

@Article{Brown13,
 author = {W. M. Brown, Y. Masako},
 title = {Implementing Molecular Dynamics on Hybrid High Performance Computers – Three-Body Potentials},
 journal = {Comp.~Phys.~Comm.},
 year =    2013,
 volume =  184,
 pages =   {2785--2793}
}

@Article{Trung15,
 author = {T. D. Nguyen, S. J. Plimpton},
 title = {Accelerating dissipative particle dynamics simulations for soft matter systems},
 journal = {Comput.~Mater.~Sci.},
 year =    2015,
 volume =  100,
 pages =   {173--180}
}

@Article{Trung17,
 author = {T. D. Nguyen},
 title = {GPU-accelerated Tersoff potentials for massively parallel Molecular Dynamics simulations},
 journal = {Comp.~Phys.~Comm.},
 year =    2017,
 volume =  212,
 pages =   {113--122}
}

@Article{Nikolskiy19,
 author = {V. Nikolskiy, V. Stegailov},
 title = {GPU acceleration of four-site water models in LAMMPS},
 journal = {Proceeding of the International Conference on Parallel Computing (ParCo 2019), Prague, Czech Republic},
 year =    2019
}

CITE-CITE-CITE-CITE-CITE-CITE-CITE-CITE-CITE-CITE-CITE-CITE-CITE

PPPM initialization ...
  extracting TIP4P info from pair style
  using polynomial approximation for long-range coulomb (src/kspace.cpp:341)
  G vector (1/distance) = 0.31707089
  grid = 45 40 40
  stencil order = 5
  estimated absolute RMS force accuracy = 0.0032258908
  estimated relative force accuracy = 9.7146743e-06
  using double precision KISS FFT
  3d grid and FFT values/proc = 27918 12600
WARNING: Increasing communication cutoff for TIP4P GPU style (src/GPU/pair_lj_cut_tip4p_long_gpu.cpp:229)
Per MPI rank memory allocation (min/avg/max) = 18.42 | 18.46 | 18.48 Mbytes
Step Temp Press Density 
       0    76.645272    16153.228    1.3140873 
    5000    77.020038    15964.308    1.3135806 
   10000    77.095935    15781.156    1.3130741 
   15000    76.401722    15776.856    1.3125679 
   20000     76.95122    15771.033    1.3120619 
   25000    75.581942    15627.067    1.3115562 
   30000    76.255022    15372.248    1.3110508 
   35000    76.600034     15422.26    1.3105456 
   40000    76.361377    15609.823    1.3100407 
   45000    77.316052    15305.192    1.3095361 
   50000     77.60876    14942.356    1.3090317 
   55000    76.873456    15043.987    1.3085276 
   60000    78.363581    14842.635    1.3080237 
   65000    76.851808    14932.922    1.3075201 
   70000    76.656688    14684.757    1.3070167 
   75000    77.480642    14771.405    1.3065136 
   80000      76.3765    14549.278    1.3060108 
   85000    77.663755    14560.913    1.3055082 
   90000    77.741403    14500.035    1.3050058 
   95000     76.85627    14231.501    1.3045038 
  100000    76.008936    14196.996     1.304002 
  105000    76.733234    14167.475    1.3035004 
  110000    77.900933    14108.671    1.3029991 
  115000     77.41359    14307.582    1.3024981 
  120000    77.261675    14144.138    1.3019973 
  125000    76.898915    13882.906    1.3014968 
  130000    75.556854    13964.549    1.3009965 
  135000    77.960821    13710.988    1.3004965 
  140000     74.98591    13862.926    1.2999967 
  145000    78.144194    13583.027    1.2994972 
  150000    75.650243    13628.404     1.298998 
  155000    77.379937    13368.682     1.298499 
  160000    75.602698    13441.781    1.2980003 
  165000    77.349569    13281.601    1.2975018 
  170000    76.227283    13271.272    1.2970036 
  175000    78.031284    13267.654    1.2965056 
  180000    78.003561    13085.301    1.2960079 
  185000    77.076483    13284.408    1.2955104 
  190000    78.917467    13029.121    1.2950132 
  195000    77.236494    13341.481    1.2945163 
  200000    78.157534    12311.153    1.2940196 
  205000    77.545802    12745.058    1.2935231 
  210000    76.220389     12633.89    1.2930269 
  215000    76.949051    12569.199     1.292531 
  220000    77.020629    12623.914    1.2920353 
  225000     77.44211    12377.188    1.2915399 
  230000     76.60844     12784.15    1.2910447 
  235000    79.012334    12329.811    1.2905498 
  240000    75.981054    12346.119    1.2900551 
  245000    76.457498    12239.367    1.2895607 
  250000    77.051159    12104.564    1.2890666 
  255000    75.938675    12020.081    1.2885727 
  260000    76.678114     11984.69     1.288079 
  265000    77.865451    11998.877    1.2875856 
  270000    77.311994    12068.778    1.2870924 
  275000    78.046314    12080.951    1.2865995 
  280000    77.738357    11855.451    1.2861069 
  285000    74.979026    11559.727    1.2856145 
  290000    77.712295    11510.626    1.2851224 
  295000    76.490593    11583.115    1.2846305 
  300000    77.828213    11775.094    1.2841388 
  305000    75.809794    11451.678    1.2836474 
  310000    75.625086    11518.547    1.2831563 
  315000    79.372109    11620.275    1.2826654 
  320000    77.094766    11430.266    1.2821747 
  325000    77.439339    11536.414    1.2816844 
  330000    77.394246    11255.985    1.2811942 
  335000    78.052647    11163.425    1.2807043 
  340000    76.195633    11150.548    1.2802147 
  345000    77.065067    10838.416    1.2797253 
  350000    77.623002    10760.929    1.2792361 
  355000    76.144934    10777.475    1.2787472 
  360000    76.930214    10911.753    1.2782586 
  365000    76.120504     10660.89    1.2777702 
  370000     77.39759    10808.576    1.2772821 
  375000    76.358043    10662.557    1.2767942 
  380000    78.247147    10554.391    1.2763065 
  385000    75.633286    10483.414    1.2758191 
  390000    77.002488    10360.222     1.275332 
  395000    76.169954     10459.51     1.274845 
  400000    77.928068     10146.47    1.2743584 
  405000    77.568136    10408.589     1.273872 
  410000    76.970776    10406.211    1.2733858 
  415000    78.613838    9999.4979    1.2728999 
  420000    76.209216    9796.3367    1.2724142 
  425000     77.34745    9854.6265    1.2719288 
  430000     77.75894    9919.6223    1.2714436 
  435000    78.739741    9933.9578    1.2709587 
  440000    76.204993    9502.5424     1.270474 
  445000    77.085202    9763.1785    1.2699896 
  450000    76.376524    9884.3419    1.2695054 
  455000    77.958664    9931.6669    1.2690215 
  460000    77.407587    9338.1428    1.2685378 
  465000    76.130052    9571.2702    1.2680543 
  470000    77.582926    9547.7598    1.2675711 
  475000    76.945811    9366.2008    1.2670882 
  480000     77.71928    9369.7716    1.2666054 
  485000    76.612354    9252.8803     1.266123 
  490000    77.623784     9010.128    1.2656408 
  495000    76.634318    9113.5798    1.2651588 
  500000    76.896522    8932.0021     1.264677 
  505000    77.253275     8899.357    1.2641955 
  510000    76.031224    8653.3431    1.2637143 
  515000    76.949933    8632.3024    1.2632333 
  520000    77.848559    8706.7335    1.2627525 
  525000    75.585723    8873.2549     1.262272 
  530000    75.929584    8474.7439    1.2617918 
  535000    75.395638    8573.8916    1.2613117 
  540000    77.831291    8477.0268     1.260832 
  545000    77.589977    8378.6519    1.2603524 
  550000    77.568535    8278.5887    1.2598731 
  555000    76.129268    8280.1183    1.2593941 
  560000    76.275848    8333.7202    1.2589153 
  565000    76.995288    8259.3396    1.2584367 
  570000    77.954825     8222.645    1.2579584 
  575000    77.172305    8345.3379    1.2574803 
  580000    75.029808     8116.481    1.2570024 
  585000    76.250406     7975.129    1.2565248 
  590000    76.874531    8144.8887    1.2560475 
  595000    75.731451    7763.4674    1.2555704 
  600000    77.750408    7810.3969    1.2550935 
  605000    78.887089    7862.6799    1.2546169 
  610000    76.342164    7495.1758    1.2541405 
  615000    78.230787    7405.5495    1.2536643 
  620000    76.640086    7568.3699    1.2531884 
  625000    77.650179    7495.9873    1.2527128 
  630000    76.621118    7432.5754    1.2522373 
  635000    77.544244    7589.6445    1.2517621 
  640000    76.642258    7402.2285    1.2512872 
  645000    77.523009    7416.0378    1.2508125 
  650000    77.704146    7263.6598     1.250338 
  655000    75.568316    7045.8855    1.2498638 
  660000     78.32421    6970.7577    1.2493898 
  665000    76.604785    6947.2264    1.2489161 
  670000    79.238611    6980.5833    1.2484426 
  675000    76.807974    6898.7555    1.2479693 
  680000    78.550662    6886.7987    1.2474963 
  685000    77.079147    6825.9023    1.2470235 
  690000    77.628196    6773.6674    1.2465509 
  695000    76.587212    6733.1149    1.2460786 
  700000    76.815161    6737.1321    1.2456066 
  705000    76.786377    6582.0292    1.2451347 
  710000    76.611521    6545.8033    1.2446631 
  715000    77.121817    6662.5186    1.2441918 
  720000    77.063397    6432.4146    1.2437206 
  725000    76.203504    6581.4005    1.2432498 
  730000    77.477978    6147.7307    1.2427791 
  735000    76.905057     6275.818    1.2423087 
  740000    76.252905    6081.8098    1.2418385 
  745000    77.041296    6051.6344    1.2413686 
  750000    76.676823    6303.3297    1.2408989 
  755000    78.739528    6116.7354    1.2404295 
  760000    76.551629    6083.4913    1.2399602 
  765000    77.092547    5916.1204    1.2394913 
  770000    75.831612     5934.554    1.2390225 
  775000    76.635401    5887.2508     1.238554 
  780000     78.46622    5622.5519    1.2380857 
  785000    77.449971    5605.9957    1.2376177 
  790000    78.607792    5713.4164    1.2371499 
  795000    76.624443    5634.9241    1.2366823 
  800000     77.77606    5169.1253     1.236215 
  805000    76.986199     5413.956    1.2357479 
  810000    77.051469    5357.0122     1.235281 
  815000    77.470337    5482.5018    1.2348144 
  820000    77.044268    5224.9258     1.234348 
  825000    77.578995    5230.3396    1.2338818 
  830000    75.785151    5199.2222    1.2334159 
  835000    76.205212    5126.0989    1.2329502 
  840000    75.822261    4964.7834    1.2324848 
  845000    77.911346    5226.0113    1.2320196 
  850000    76.776266    4892.6771    1.2315546 
  855000    77.443793    5177.1452    1.2310898 
  860000    78.700552    5016.7271    1.2306253 
  865000    76.534344    4740.4031     1.230161 
  870000    77.475984    4922.5987     1.229697 
  875000     76.63946    4892.4316    1.2292332 
  880000    77.365652    4799.6892    1.2287696 
  885000    77.173641      4716.93    1.2283062 
  890000    78.510047    4578.9632    1.2278431 
  895000    77.442502    4560.2938    1.2273802 
  900000    76.466244     4617.061    1.2269176 
  905000    76.984256    4520.2554    1.2264552 
  910000    76.432969    4514.1536     1.225993 
  915000    76.901241    4431.4354     1.225531 
  920000    78.374128    4274.6297    1.2250693 
  925000    77.613765    4440.2368    1.2246078 
  930000    76.566961    4477.2725    1.2241465 
  935000     77.12784    4257.8039    1.2236855 
  940000    77.532568    4381.4058    1.2232247 
  945000    75.113258     4085.516    1.2227642 
  950000    77.129775    4082.0386    1.2223038 
  955000    77.628646    4004.3457    1.2218437 
  960000    75.824499    3862.2285    1.2213839 
  965000    76.566567    4160.7697    1.2209242 
  970000    76.715744    3968.9511    1.2204648 
  975000    79.154544    3976.4363    1.2200056 
  980000    77.046441    4085.1976    1.2195467 
  985000    77.966924    3796.7171     1.219088 
  990000    77.468817     3762.546    1.2186295 
  995000    76.922665    3832.1319    1.2181712 
 1000000    77.903429    3588.9507    1.2177132 
 1005000    76.897663    3671.6205    1.2172554 
 1010000    75.706972    3438.9598    1.2167978 
 1015000    76.831767     3670.253    1.2163405 
 1020000    78.378448    3530.5369    1.2158834 
 1025000    76.683907    3491.3447    1.2154265 
 1030000    77.118012    3180.8106    1.2149698 
 1035000    78.022916    3494.7901    1.2145134 
 1040000    76.197403    3150.1484    1.2140572 
 1045000     77.17736    3476.2308    1.2136012 
 1050000    76.126471    3360.3468    1.2131455 
 1055000    77.212041     3267.067      1.21269 
 1060000    77.594576    3295.2071    1.2122347 
 1065000    77.197747    2936.6056    1.2117796 
 1070000    76.222701    2922.3291    1.2113248 
 1075000    76.422944    2964.7589    1.2108702 
 1080000    77.630086    3101.2585    1.2104158 
 1085000    75.694399    2929.0546    1.2099617 
 1090000    77.559186    2851.6404    1.2095078 
 1095000    75.238549    2851.1039    1.2090541 
 1100000    77.871676    2887.9644    1.2086006 
 1105000    77.329059    2590.9222    1.2081474 
 1110000    78.456845    2682.2882    1.2076944 
 1115000    76.411655    2684.8917    1.2072416 
 1120000    77.222267    2595.6205     1.206789 
 1125000     77.41976    2473.4704    1.2063367 
 1130000    75.082695    2521.5285    1.2058846 
 1135000    77.023401    2284.5399    1.2054327 
 1140000    76.260435    2751.6567    1.2049811 
 1145000    77.776455    2444.1502    1.2045296 
 1150000    76.913769     2334.763    1.2040784 
 1155000    74.518423    2367.8486    1.2036274 
 1160000    76.571563    2344.6572    1.2031767 
 1165000    76.372851    2250.9314    1.2027262 
 1170000    76.432219    2029.5186    1.2022759 
 1175000    77.481512    2293.6917    1.2018258 
 1180000    76.125171    2163.7747    1.2013759 
 1185000    77.203801    1906.8156    1.2009263 
 1190000    76.470225     1861.665    1.2004769 
 1195000    75.759359    2268.5927    1.2000277 
 1200000    75.990573    2067.8983    1.1995788 
 1205000    77.220719    1760.1877      1.19913 
 1210000    76.465635    1956.4058    1.1986815 
 1215000    76.621894    1867.7586    1.1982332 
 1220000    76.475115    1856.1276    1.1977852 
 1225000    78.056327    1618.4511    1.1973373 
 1230000    76.397035    1616.3542    1.1968897 
 1235000    76.894644    1664.8418    1.1964423 
 1240000    75.518136    1813.0452    1.1959952 
 1245000     76.68992    1518.7273    1.1955482 
 1250000    77.075465    1671.1565    1.1951015 
 1255000    76.493586    1297.1933     1.194655 
 1260000    77.673872     1496.856    1.1942087 
 1265000    76.107036    1515.1073    1.1937626 
 1270000    77.484464     1468.312    1.1933168 
 1275000    77.760451    1522.9025    1.1928712 
 1280000    77.418747    1484.2543    1.1924258 
 1285000    76.348993    1257.4423    1.1919806 
 1290000    77.382785    1496.0598    1.1915357 
 1295000    75.950679    1307.1975     1.191091 
 1300000     77.26082    1272.4111    1.1906465 
 1305000    76.938859    1264.9626    1.1902022 
 1310000    78.102876    1187.3878    1.1897581 
 1315000    75.995009    1123.5582    1.1893143 
 1320000    77.631384    1357.7206    1.1888707 
 1325000    76.000908    1088.5305    1.1884273 
 1330000    77.032065     1131.021    1.1879841 
 1335000    77.120592    1093.7694    1.1875411 
 1340000    77.660769    1027.1482    1.1870984 
 1345000    76.846377    1149.4866    1.1866559 
 1350000    76.228502    1193.4192    1.1862136 
 1355000     78.25827    897.89034    1.1857715 
 1360000    77.041024    1047.8107    1.1853296 
 1365000    76.573842    802.83728     1.184888 
 1370000    77.697647    751.86495    1.1844466 
 1375000    76.983841    861.95126    1.1840054 
 1380000    79.353797    934.93017    1.1835644 
 1385000    75.536664    647.31025    1.1831236 
 1390000    77.315162     598.9237    1.1826831 
 1395000    76.185271    520.21428    1.1822427 
 1400000    78.372059    644.41482    1.1818026 
 1405000    76.625471    725.22457    1.1813627 
 1410000    77.732564    740.64314    1.1809231 
 1415000    76.913481    714.34831    1.1804836 
 1420000    77.566447    334.49447    1.1800444 
 1425000    76.473638    606.55497    1.1796054 
 1430000    77.415578    595.80603    1.1791666 
 1435000    77.811563     579.5977     1.178728 
 1440000    77.418356    349.54808    1.1782896 
 1445000     77.39245     175.2503    1.1778515 
 1450000    76.360362    203.24053    1.1774135 
 1455000    78.329785     44.95094    1.1769758 
 1460000     77.86284    213.22421    1.1765383 
 1465000    78.834643      322.926    1.1761011 
 1470000    76.739967    220.10025     1.175664 
 1475000    78.942642    34.140006    1.1752272 
 1480000    77.276583    55.882854    1.1747905 
 1485000    75.837231   -4.9520128    1.1743541 
 1490000    78.248335   -23.245761    1.1739179 
 1495000    75.644659   -37.032733    1.1734819 
 1500000    76.668669    1.3782072    1.1730462 
 1505000    76.715012   -70.873532    1.1726106 
 1510000     77.09539   -95.756296    1.1721753 
 1515000    78.039838    122.53898    1.1717402 
 1520000    77.286736   -72.471129    1.1713053 
 1525000      77.8158   -55.566465    1.1708706 
 1530000    77.614428   -59.807991    1.1704361 
 1535000    76.842166   -52.999685    1.1700019 
 1540000    77.262381   -227.62692    1.1695678 
 1545000    76.933085   -92.002778     1.169134 
 1550000    77.640547   -181.21978    1.1687004 
 1555000    76.666548   -103.64964     1.168267 
 1560000    76.461892   -400.17555    1.1678338 
 1565000     75.72241    -416.5676    1.1674008 
 1570000    77.342711   -260.36113    1.1669681 
 1575000    76.788763   -189.99896    1.1665355 
 1580000    77.167931   -219.28966    1.1661032 
 1585000    77.679416   -522.60143    1.1656711 
 1590000    76.995831   -524.79847    1.1652392 
 1595000    76.263381   -508.95879    1.1648075 
 1600000     77.53088    -460.9035     1.164376 
 1605000     75.59856   -443.25573    1.1639447 
 1610000    77.240468   -796.80018    1.1635137 
 1615000     76.34181   -392.81109    1.1630829 
 1620000     77.89551   -541.13332    1.1626522 
 1625000     76.87878   -460.51405    1.1622218 
 1630000    78.026134   -545.99014    1.1617916 
 1635000    75.696126    -775.0486    1.1613616 
 1640000    76.513082   -700.90577    1.1609319 
 1645000    76.800119   -604.61372    1.1605023 
 1650000    77.059396   -842.70039    1.1600729 
 1655000    77.798752   -730.18871    1.1596438 
 1660000    76.569575   -945.84166    1.1592149 
 1665000    75.812819   -654.24759    1.1587862 
 1670000    76.976096   -920.54777    1.1583577 
 1675000     76.54569   -699.66572    1.1579294 
 1680000    76.811017   -887.61766    1.1575013 
 1685000    76.875199   -923.74853    1.1570734 
 1690000    76.382267   -799.98449    1.1566458 
 1695000    77.197856   -737.18512    1.1562183 
 1700000    76.541212   -710.88329    1.1557911 
 1705000    77.511833    -1071.744     1.155364 
 1710000    75.447858   -1094.1185    1.1549372 
 1715000    79.578182   -951.18388    1.1545106 
 1720000    78.177288   -1502.9786    1.1540842 
 1725000    77.698269   -1199.4471     1.153658 
 1730000    79.243032    -1151.428    1.1532321 
 1735000    76.893068   -1260.0202    1.1528063 
 1740000    76.947517   -1230.4032    1.1523807 
 1745000    75.318688   -1202.7978    1.1519554 
 1750000     78.17892   -1338.6011    1.1515302 
 1755000    76.086709   -991.07463    1.1511053 
 1760000    77.343435   -1341.9225    1.1506806 
 1765000    78.136029   -1331.3831    1.1502561 
 1770000     77.02121    -1162.908    1.1498318 
 1775000    76.988358   -1153.6036    1.1494077 
 1780000    76.127689   -1312.9317    1.1489838 
 1785000    77.189147   -1348.6503    1.1485601 
 1790000    77.783565   -1496.7352    1.1481366 
 1795000    77.592679   -1510.3508    1.1477134 
 1800000     77.01992    -1253.119    1.1472903 
 1805000    78.223498   -1329.1723    1.1468675 
 1810000    75.794326   -1565.2814    1.1464448 
 1815000     78.71948   -1376.4563    1.1460224 
 1820000    76.949948   -1350.2221    1.1456002 
 1825000    76.928903   -1526.4907    1.1451782 
 1830000    76.573447   -1769.2865    1.1447564 
 1835000    76.571965   -1664.4473    1.1443348 
 1840000    76.420996   -1698.9939    1.1439134 
 1845000    77.337954   -1670.9292    1.1434922 
 1850000     77.76916   -1966.8905    1.1430712 
 1855000    75.908507   -1738.4842    1.1426504 
 1860000    75.846768   -1767.5374    1.1422299 
 1865000    76.795228   -1716.9876    1.1418095 
 1870000    76.193208   -1920.8474    1.1413893 
 1875000    78.100946   -1772.9932    1.1409694 
 1880000    76.194258   -1960.3863    1.1405497 
 1885000     77.51763   -1879.0221    1.1401301 
 1890000    77.690183   -1903.7802    1.1397108 
 1895000    76.646304   -1885.1421    1.1392917 
 1900000    76.831023   -1930.4083    1.1388727 
 1905000    76.283253   -1804.5754     1.138454 
 1910000    77.708231   -1705.2719    1.1380355 
 1915000    76.246098   -2112.9968    1.1376172 
 1920000     76.66307   -2078.0213    1.1371991 
 1925000    76.857433   -1998.5519    1.1367812 
 1930000    77.957566   -2179.0355    1.1363635 
 1935000    77.201006    -2046.919     1.135946 
 1940000    77.531853   -1976.7195    1.1355288 
 1945000    75.418974   -2162.7974    1.1351117 
 1950000    76.709267   -2177.8625    1.1346948 
 1955000    77.244337   -2130.7448    1.1342781 
 1960000    77.022086   -1988.0973    1.1338617 
 1965000    77.161209   -2362.6422    1.1334454 
 1970000    76.461361   -2349.4456    1.1330294 
 1975000    78.791034   -2312.4871    1.1326135 
 1980000    77.183191   -2148.8086    1.1321979 
 1985000    76.784281   -2524.1686    1.1317824 
 1990000    77.175507   -2124.1351    1.1313672 
 1995000    77.301278   -2322.2793    1.1309521 
 2000000    76.458004   -2572.2973    1.1305373 
 2005000    75.930773   -2318.3739    1.1301227 
 2010000    79.610371    -2538.108    1.1297082 
 2015000    76.244606   -2363.9787     1.129294 
 2020000    77.184666   -2538.9782      1.12888 
 2025000    78.032341   -2364.1812    1.1284662 
 2030000    76.349728   -2489.5049    1.1280525 
 2035000    77.005936   -2652.1526    1.1276391 
 2040000    77.607341   -2173.4114    1.1272259 
 2045000    77.875561   -2707.0184    1.1268129 
 2050000    77.630919   -2362.2267    1.1264001 
 2055000    76.714795   -2432.0325    1.1259875 
 2060000    76.479162   -2314.7319     1.125575 
 2065000    76.355079   -2625.5447    1.1251628 
 2070000    76.275989   -2732.4931    1.1247508 
 2075000    76.936145   -2697.8787     1.124339 
 2080000    77.302922   -2828.1385    1.1239274 
 2085000    77.596961   -2723.3409     1.123516 
 2090000    75.974957   -2516.8694    1.1231048 
 2095000    75.767493   -2651.5561    1.1226938 
 2100000    75.973336    -2517.789     1.122283 
 2105000    77.327932   -2640.5206    1.1218724 
 2110000    77.361168   -2845.3721     1.121462 
 2115000    77.774637   -2770.5204    1.1210518 
 2120000    76.911496   -2462.8326    1.1206418 
 2125000    76.671636   -2643.9541     1.120232 
 2130000    76.963314   -2643.0479    1.1198224 
 2135000    76.781286    -2774.008     1.119413 
 2140000    76.022316   -2808.2215    1.1190038 
 2145000    76.496401   -2807.2885    1.1185948 
 2150000    76.904663   -2731.2605     1.118186 
 2155000     78.32577   -2586.6141    1.1177774 
 2160000    76.553482   -2638.2581     1.117369 
 2165000    77.593553   -2967.3573    1.1169608 
 2170000    77.026164   -2676.2418    1.1165528 
 2175000    76.664373   -2770.1859    1.1161449 
 2180000    78.433896   -2465.3754    1.1157373 
 2185000    77.115155   -2773.1477    1.1153299 
 2190000    77.447575   -2496.7935    1.1149227 
 2195000    76.162961   -2650.9867    1.1145157 
 2200000    76.690428   -2654.9243    1.1141089 
 2205000    77.185286   -2565.5328    1.1137022 
 2210000    76.745542   -2840.4312    1.1132958 
 2215000    77.374418   -2628.5848    1.1128896 
 2220000     76.58777   -2566.3981    1.1124836 
 2225000    75.732581     -2784.16    1.1120777 
 2230000    77.511148   -2741.8363    1.1116721 
 2235000     77.08885   -2961.0615    1.1112667 
 2240000    77.281542   -2951.7073    1.1108614 
 2245000    76.248161   -2946.6612    1.1104564 
 2250000     76.95255   -2983.3141    1.1100516 
 2255000    77.244664    -2758.015    1.1096469 
 2260000    76.872239   -3073.9444    1.1092425 
 2265000    77.589135     -2886.24    1.1088382 
 2270000    76.866922   -2924.8605    1.1084341 
 2275000    78.066672   -3108.8244    1.1080303 
 2280000    77.500727   -2730.3128    1.1076266 
 2285000    77.688603   -2915.6302    1.1072232 
 2290000     76.70308   -3021.5676    1.1068199 
 2295000    75.983995   -3130.4481    1.1064168 
 2300000    76.365374   -3112.7179    1.1060139 
 2305000    77.402012   -2816.1583    1.1056112 
 2310000    77.179049   -3091.0534    1.1052087 
 2315000    76.755568   -2970.1777    1.1048065 
 2320000     78.08029   -3153.2076    1.1044044 
 2325000    76.990577   -2953.3061    1.1040024 
 2330000    77.547196   -3114.3633    1.1036007 
 2335000    75.820274   -2966.2676    1.1031992 
 2340000    77.678646   -3113.0634    1.1027979 
 2345000    75.851975   -3063.0268    1.1023968 
 2350000    76.121538   -3049.5892    1.1019958 
 2355000    77.486853   -3226.8356    1.1015951 
 2360000    77.598774   -3191.0392    1.1011946 
 2365000    78.733415   -3268.5185    1.1007942 
 2370000    77.221904   -3078.5918    1.1003941 
 2375000    76.679393   -3197.2012    1.0999941 
 2380000    77.417833   -3140.9882    1.0995943 
 2385000    76.865111   -3245.2558    1.0991948 
 2390000    76.667249   -3321.8535    1.0987954 
 2395000    78.037603   -3327.6751    1.0983962 
 2400000     77.02968   -3242.5859    1.0979972 
 2405000     77.89751   -2938.8041    1.0975984 
 2410000    77.615021   -3125.8001    1.0971998 
 2415000    76.559075   -3013.3806    1.0968014 
 2420000    78.244319   -3020.9528    1.0964032 
 2425000    77.021866   -3087.8265    1.0960051 
 2430000    78.009326    -3182.319    1.0956073 
 2435000    78.770006   -3113.1149    1.0952097 
 2440000    76.921291   -3385.3438    1.0948122 
 2445000    78.655669   -3126.3121     1.094415 
 2450000    77.856936   -3365.9775    1.0940179 
 2455000     75.72466   -3480.7655     1.093621 
 2460000    76.523836   -3253.1433    1.0932243 
 2465000    77.084977   -3507.5717    1.0928278 
 2470000    77.688243   -3311.2687    1.0924316 
 2475000    76.917148    -3453.523    1.0920354 
 2480000    77.224484     -3336.39    1.0916395 
 2485000    77.496934   -3383.4574    1.0912438 
 2490000    78.651707   -3353.3508    1.0908483 
 2495000    77.732597   -3449.3792    1.0904529 
 2500000    78.989751   -3252.7284    1.0900578 
 2505000    78.248671   -3325.3188    1.0896628 
 2510000    79.204665   -3450.8156    1.0892681 
 2515000    76.723355   -3288.1249    1.0888735 
 2520000    75.474194   -3663.3185    1.0884791 
 2525000    77.130557   -3392.7429    1.0880849 
 2530000     78.10838   -3600.3948    1.0876909 
 2535000     77.63714    -3456.319    1.0872971 
 2540000    78.141748   -3459.3289    1.0869034 
 2545000    77.494049   -3563.7514      1.08651 
 2550000    76.848347   -3498.1031    1.0861168 
 2555000    77.400047   -3316.5281    1.0857237 
 2560000    76.633238   -3374.3909    1.0853308 
 2565000    77.827896   -3477.8502    1.0849382 
 2570000    77.407222   -3485.6746    1.0845457 
 2575000     77.93204   -3725.7556    1.0841534 
 2580000    75.177197   -3572.1693    1.0837613 
 2585000    78.479198    -3599.997    1.0833693 
 2590000    78.678492   -3567.0386    1.0829776 
 2595000    77.816608    -3827.501    1.0825861 
 2600000    77.295065   -3402.9277    1.0821947 
 2605000    76.486034   -3926.9182    1.0818036 
 2610000    76.666298   -3407.2757    1.0814126 
 2615000    75.910948   -3548.0442    1.0810218 
 2620000    78.280152   -3435.4044    1.0806312 
 2625000    77.312324   -3510.4618    1.0802408 
 2630000    77.147928   -3544.9519    1.0798506 
 2635000    77.682303   -3560.4533    1.0794605 
 2640000     77.70533   -3537.6762    1.0790707 
 2645000    76.112898   -3431.1428     1.078681 
 2650000    77.211499   -3636.2164    1.0782915 
 2655000    74.714264   -3754.8457    1.0779023 
 2660000    77.836929   -3786.1692    1.0775132 
 2665000    76.822255   -3751.7005    1.0771242 
 2670000    76.971867   -3388.3484    1.0767355 
 2675000    77.433198   -3726.5125     1.076347 
 2680000    77.458791   -3692.6432    1.0759586 
 2685000    75.942728   -3746.0208    1.0755705 
 2690000    77.285266   -3593.9227    1.0751825 
 2695000    75.653206    -3566.321    1.0747947 
 2700000    77.220814   -4044.5377    1.0744071 
 2705000      78.6279   -3841.0506    1.0740197 
 2710000    77.275694   -3441.1018    1.0736325 
 2715000    77.950331   -3429.7743    1.0732454 
 2720000    76.587975   -3828.5635    1.0728586 
 2725000    77.011892   -3680.3283    1.0724719 
 2730000    78.008342   -3887.1091    1.0720854 
 2735000    76.507489   -3708.5936    1.0716991 
 2740000    78.098589   -3654.3955     1.071313 
 2745000    77.187424   -4073.0037     1.070927 
 2750000     77.00542   -3794.4845    1.0705413 
 2755000    78.219117   -3999.4192    1.0701557 
 2760000    76.835273   -3891.3784    1.0697704 
 2765000    77.489997   -4127.0693    1.0693852 
 2770000    77.574483     -4023.22    1.0690002 
 2775000    78.131588   -3980.9504    1.0686154 
 2780000     76.09424   -3613.2376    1.0682307 
 2785000    76.731528   -3984.5989    1.0678463 
 2790000    77.603401   -3769.7332     1.067462 
 2795000    76.687428   -4105.5121    1.0670779 
 2800000    78.088726   -4060.1278     1.066694 
 2805000    77.407349   -4111.3462    1.0663103 
 2810000    77.444398   -4125.2333    1.0659268 
 2815000    77.164949   -3765.6688    1.0655434 
 2820000      77.4433   -3934.5268    1.0651603 
 2825000    78.312654   -3930.4944    1.0647773 
 2830000    78.056109   -4033.2428    1.0643945 
 2835000    78.378507   -3764.7042    1.0640119 
 2840000    77.236371   -4110.3849    1.0636295 
 2845000    77.146198   -4081.9759    1.0632472 
 2850000    77.559815   -3814.2069    1.0628652 
 2855000    77.141821     -3909.63    1.0624833 
 2860000    77.043179   -4120.4669    1.0621016 
 2865000    78.802825   -4326.0674    1.0617201 
 2870000     75.19728   -4122.3177    1.0613387 
 2875000    77.390608   -4195.0235    1.0609576 
 2880000    76.671792   -4340.5218    1.0605766 
 2885000    76.743461   -4139.5905    1.0601959 
 2890000    77.446715   -4144.4492    1.0598153 
 2895000    77.135616   -4181.7141    1.0594348 
 2900000    76.273202   -4105.4492    1.0590546 
 2905000     78.10955   -4061.2038    1.0586745 
 2910000    78.481949   -4019.8653    1.0582947 
 2915000    76.245761   -4124.5099     1.057915 
 2920000    78.914524   -3996.9356    1.0575355 
 2925000    77.293901   -4214.8946    1.0571562 
 2930000    75.889766   -4226.4565     1.056777 
 2935000    77.051009   -4218.7731     1.056398 
 2940000    77.485309   -4169.3109    1.0560193 
 2945000    78.225174   -4286.2157    1.0556407 
 2950000    75.953806   -4484.2281    1.0552622 
 2955000    76.417813   -4162.1216     1.054884 
 2960000    77.522299   -4350.6997    1.0545059 
 2965000    76.848225   -4203.5783    1.0541281 
 2970000    77.352486   -4386.9652    1.0537504 
 2975000    76.811785   -4323.5504    1.0533728 
 2980000    76.437023   -4145.0415    1.0529955 
 2985000     77.58394   -4369.0213    1.0526183 
 2990000    76.218734   -4340.3332    1.0522414 
 2995000     77.16622   -4392.1929    1.0518646 
 3000000    76.756632   -4394.9249     1.051488 
 3005000    77.754682   -4254.7599    1.0511115 
 3010000    77.042441   -4206.7013    1.0507353 
 3015000     77.97316   -4170.9493    1.0503592 
 3020000    75.106766   -4360.8123    1.0499833 
 3025000    76.862789    -4385.099    1.0496076 
 3030000     76.85848   -4327.7381     1.049232 
 3035000    76.690523   -4052.2989    1.0488567 
 3040000    76.960788   -4160.7933    1.0484815 
 3045000    77.081431   -4067.8335    1.0481065 
 3050000    75.777263   -4111.0935    1.0477316 
 3055000    77.452109   -4245.3994     1.047357 
 3060000    77.875722   -4299.7291    1.0469825 
 3065000    76.412138   -4497.2333    1.0466082 
 3070000    78.544931    -4425.131    1.0462341 
 3075000    76.925511   -4335.4509    1.0458602 
 3080000    76.177189   -4246.5452    1.0454865 
 3085000    77.458854   -4324.8441    1.0451129 
 3090000    75.916394   -4387.8534    1.0447395 
 3095000    76.901654    -4440.351    1.0443663 
 3100000     77.03801   -4450.8108    1.0439932 
 3105000    76.256643   -4429.7052    1.0436204 
 3110000    78.413937   -4373.9223    1.0432477 
 3115000    76.361247   -4401.1702    1.0428752 
 3120000    76.406237   -4317.1562    1.0425028 
 3125000    77.302287   -4382.8369    1.0421307 
 3130000    75.906598    -4566.522    1.0417587 
 3135000    76.425603   -4452.5326    1.0413869 
 3140000    75.751051   -4605.2543    1.0410153 
 3145000    77.701643   -4540.5522    1.0406438 
 3150000    76.797416   -4721.6185    1.0402725 
 3155000    76.586301   -4655.9853    1.0399015 
 3160000    78.945035   -4494.5893    1.0395305 
 3165000    76.107559    -4382.288    1.0391598 
 3170000    75.448664   -4521.6713    1.0387892 
 3175000    78.076696   -4543.7499    1.0384188 
 3180000    76.163251   -4572.5754    1.0380486 
 3185000    76.598679   -4429.6071    1.0376786 
 3190000    76.778382   -4343.0145    1.0373087 
 3195000    76.791393   -4402.4886     1.036939 
 3200000    77.385456   -4475.5239    1.0365695 
 3205000    76.794691   -4349.0757    1.0362002 
 3210000    76.549148   -4566.2931     1.035831 
 3215000    76.438255    -4311.063    1.0354621 
 3220000    76.133287   -4497.4776    1.0350933 
 3225000    76.400102   -4447.0419    1.0347246 
 3230000     78.10914   -4637.1431    1.0343562 
 3235000    76.447623   -4718.3576    1.0339879 
 3240000    76.092677   -4495.5613    1.0336198 
 3245000    77.727434   -4552.6981    1.0332518 
 3250000    75.793212   -4618.9653    1.0328841 
 3255000    76.670334   -4391.6192    1.0325165 
 3260000    77.146138    -4568.978    1.0321491 
 3265000    77.953052   -4462.3785    1.0317819 
 3270000    76.449469   -4692.0428    1.0314148 
 3275000      77.7729   -4446.2114    1.0310479 
 3280000    77.747534    -4555.222    1.0306812 
 3285000    76.685101   -4734.0768    1.0303147 
 3290000    78.191916   -4726.3472    1.0299483 
 3295000    76.786984   -4582.0544    1.0295821 
 3300000    76.776032    -4403.818    1.0292161 
 3305000    76.054529   -4630.2506    1.0288502 
 3310000    76.708951    -4607.007    1.0284846 
 3315000    77.407778   -4504.0532    1.0281191 
 3320000    76.449984   -4659.5462    1.0277537 
 3325000    76.312837   -4421.3407    1.0273886 
 3330000    78.169902   -4395.4827    1.0270236 
 3335000    76.858568   -4557.7823    1.0266588 
 3340000    76.244666   -4365.1159    1.0262942 
 3345000    78.460497   -4505.9795    1.0259297 
 3350000    77.626066   -4335.8532    1.0255654 
 3355000    76.518231    -4332.269    1.0252013 
 3360000      77.4298   -4515.5734    1.0248374 
 3365000    77.152566   -4517.3921    1.0244736 
 3370000    77.307249   -4195.9338      1.02411 
 3375000    75.754544   -4382.5913    1.0237466 
 3380000    76.778985   -4471.4283    1.0233833 
 3385000    78.468198   -4322.6361    1.0230202 
 3390000    76.543355   -4398.1955    1.0226573 
 3395000    76.482687   -4527.4855    1.0222946 
 3400000    75.782079   -4475.4805     1.021932 
 3405000    77.969577   -4483.7701    1.0215696 
 3410000    76.943989   -4470.3486    1.0212074 
 3415000    76.531884   -4492.6938    1.0208453 
 3420000    78.593431   -4269.9026    1.0204834 
 3425000    77.387179   -4507.5185    1.0201217 
 3430000    76.750675   -4398.8004    1.0197602 
 3435000    76.926906   -4482.2492    1.0193988 
 3440000    78.407519   -4320.2995    1.0190376 
 3445000    76.621311   -4432.3441    1.0186766 
 3450000    77.913269   -4525.3074    1.0183157 
 3455000    76.615572   -4684.5256     1.017955 
 3460000    78.369065   -4493.4281    1.0175945 
 3465000    76.351976    -4641.466    1.0172342 
 3470000    76.141987   -4792.5359     1.016874 
 3475000     76.08695   -4419.4562     1.016514 
 3480000    78.062585   -4532.6871    1.0161542 
 3485000    76.675612   -4586.3703    1.0157945 
 3490000    76.850309   -4397.8625     1.015435 
 3495000    76.083522   -4632.3187    1.0150757 
 3500000    75.825632   -4727.6835    1.0147165 
 3505000    77.988658   -4636.0585    1.0143575 
 3510000    77.217731   -4607.8015    1.0139987 
 3515000     78.23557   -4593.8536      1.01364 
 3520000    76.246611   -4513.3312    1.0132816 
 3525000    76.279228   -4420.3573    1.0129233 
 3530000    77.713381   -4643.9228    1.0125651 
 3535000     76.80692   -4550.3066    1.0122071 
 3540000    77.412708   -4717.7834    1.0118493 
 3545000    76.373953   -4648.3856    1.0114917 
 3550000    77.725446   -4595.5319    1.0111342 
 3555000    76.912402   -4622.7983    1.0107769 
 3560000    77.677556    -4445.382    1.0104198 
 3565000     78.13764   -4430.6144    1.0100628 
 3570000    76.684637   -4619.1305     1.009706 
 3575000    78.121222   -4708.3636    1.0093494 
 3580000    76.007114   -4639.0449    1.0089929 
 3585000    76.424378   -4734.8451    1.0086366 
 3590000    77.971163   -4563.6049    1.0082805 
 3595000    75.522273   -4264.6746    1.0079246 
 3600000    78.370445   -4499.9933    1.0075688 
 3605000    77.685133   -4546.0499    1.0072132 
 3610000    77.949768   -4696.5835    1.0068577 
 3615000    79.504658   -4623.6591    1.0065024 
 3620000     75.89763     -4788.74    1.0061473 
 3625000    77.724493   -4682.9817    1.0057923 
 3630000    77.964484   -4625.7056    1.0054376 
 3635000    75.551168    -4828.421    1.0050829 
 3640000    76.256733   -4628.1308    1.0047285 
 3645000      76.5506   -4819.8189    1.0043742 
 3650000    76.380383   -4625.8865    1.0040201 
 3655000    77.846501   -4865.9739    1.0036661 
 3660000    77.238415   -4832.3919    1.0033123 
 3665000    77.747663   -4606.9493    1.0029587 
 3670000    74.806577   -4920.6932    1.0026053 
 3675000    78.341007   -4775.4313     1.002252 
 3680000    76.848486    -4722.365    1.0018989 
 3685000    76.574914   -4906.5044    1.0015459 
 3690000    75.680661   -4912.9375    1.0011931 
 3695000    77.267084   -4973.3745    1.0008405 
 3700000    77.200787    -5048.576     1.000488 
 3705000    77.760452   -4939.2464    1.0001357 
 3710000    77.116065   -4881.3839    0.9997836 
 3715000    77.336787   -4873.9989   0.99943164 
 3720000    77.771885   -5007.8248   0.99907984 
 3725000      75.4118   -4865.4869   0.99872821 
 3730000     76.57321   -4940.5647   0.99837674 
 3735000    77.265569    -5074.479   0.99802544 
 3740000    76.292245   -5093.9105    0.9976743 
 3745000    76.818108   -4901.7915   0.99732333 
 3750000     76.32132   -5061.3041   0.99697252 
 3755000     77.83258   -5087.0994   0.99662187 
 3760000    76.075438   -5027.8772   0.99627139 
 3765000    78.002478   -4974.2496   0.99592108 
 3770000     77.52339   -5142.3507   0.99557093 
 3775000    76.740882   -5015.1427   0.99522094 
 3780000     76.71408   -4953.0804   0.99487112 
 3785000    77.194703   -5152.7485   0.99452146 
 3790000      77.9976    -4973.494   0.99417196 
 3795000    76.509323    -5081.323   0.99382263 
 3800000    76.073438   -5140.0567   0.99347346 
 3805000    77.433973   -5012.8345   0.99312446 
 3810000    77.599021   -4975.5972   0.99277562 
 3815000    78.149055   -5163.1804   0.99242694 
 3820000    76.069964   -4844.1686   0.99207842 
 3825000    77.449893    -5019.015   0.99173007 
 3830000    76.764465   -5194.5791   0.99138188 
 3835000    75.344054    -5219.711   0.99103386 
 3840000    76.784927   -5296.3413     0.990686 
 3845000     74.76185   -5145.2474    0.9903383 
 3850000    77.176063   -5144.0242   0.98999076 
 3855000    75.150524   -5218.3473   0.98964339 
 3860000    79.014646   -5035.0936   0.98929618 
 3865000    76.960398   -5008.1103   0.98894913 
 3870000    76.868799   -4974.1051   0.98860224 
 3875000    76.755501   -5085.5118   0.98825551 
 3880000    76.690091   -5089.6404   0.98790895 
 3885000    77.165705   -5061.3539   0.98756255 
 3890000     78.27407   -4954.0659   0.98721631 
 3895000     76.41414   -5174.7078   0.98687024 
 3900000    76.591404   -4951.7291   0.98652432 
 3905000      77.1788   -5003.1633   0.98617857 
 3910000    76.370308    -5090.631   0.98583297 
 3915000    77.490065     -5187.92   0.98548754 
 3920000    77.194898   -5057.4815   0.98514228 
 3925000    78.474102   -4993.4248   0.98479717 
 3930000    77.193305   -4985.0101   0.98445222 
 3935000    76.140397   -5289.6189   0.98410744 
 3940000    76.501571   -4897.5916   0.98376281 
 3945000    78.183895   -5110.6613   0.98341835 
 3950000    77.677193   -5056.5166   0.98307404 
 3955000    79.106674   -5027.1553    0.9827299 
 3960000    76.996406   -5215.5282   0.98238592 
 3965000    76.618217   -5082.0955    0.9820421 
 3970000    75.660766   -5253.1578   0.98169844 
 3975000    76.874386   -5020.9355   0.98135494 
 3980000    75.801074    -5241.802    0.9810116 
 3985000    77.438924   -4907.2334   0.98066842 
 3990000    77.728172   -4845.7264    0.9803254 
 3995000    76.983596   -4985.6003   0.97998254 
 4000000    77.724633   -4932.0511   0.97963984 
 4005000    76.662319   -5150.5159    0.9792973 
 4010000    76.466245   -4913.3573   0.97895492 
 4015000    77.160873   -4928.8761    0.9786127 
 4020000    77.740982   -5082.0888   0.97827063 
 4025000    75.357426   -5044.1352   0.97792873 
 4030000    77.922233   -5208.7981   0.97758699 
 4035000    77.286745   -5264.9232   0.97724541 
 4040000    79.080134   -5153.5181   0.97690398 
 4045000    76.525377   -5311.3543   0.97656272 
 4050000    76.558101   -5208.3183   0.97622161 
 4055000    78.297277   -5177.7548   0.97588066 
 4060000     78.63404   -5279.7102   0.97553987 
 4065000    76.273518   -5242.1165   0.97519924 
 4070000    78.250586   -5525.5059   0.97485877 
 4075000    77.160074   -5134.4649   0.97451846 
 4080000    77.286867   -5231.3835    0.9741783 
 4085000    78.062259   -5297.6731   0.97383831 
 4090000    77.344346   -5227.9947   0.97349847 
 4095000    74.568509   -5210.3355   0.97315879 
 4100000    77.900418   -5084.3132   0.97281927 
 4105000    78.084137   -5012.1836    0.9724799 
 4110000    76.233144   -5233.7123    0.9721407 
 4115000    77.273287    -5442.101   0.97180165 
 4120000    77.922096   -5237.5667   0.97146276 
 4125000    76.136367   -5191.8584   0.97112402 
 4130000    77.603128   -5194.5586   0.97078545 
 4135000    77.367233   -5481.0631   0.97044703 
 4140000    75.718327   -5182.7412   0.97010877 
 4145000    76.731359   -5244.9301   0.96977066 
 4150000     75.70977   -5300.8472   0.96943271 
 4155000    77.901015    -5384.087   0.96909492 
 4160000    75.721347   -5301.1692   0.96875729 
 4165000    77.770747   -5312.2105   0.96841981 
 4170000    77.070097   -5415.1964   0.96808249 
 4175000    76.502887   -5294.7206   0.96774533 
 4180000    76.788755   -5528.5263   0.96740832 
 4185000    77.134399   -5517.3418   0.96707147 
 4190000    76.642296   -5620.1111   0.96673478 
 4195000    79.215826   -5441.0969   0.96639824 
 4200000    77.910617   -5406.5604   0.96606186 
 4205000    77.225432   -5369.4989   0.96572564 
 4210000    75.514667   -5550.6926   0.96538957 
 4215000    77.857065   -5363.5344   0.96505366 
 4220000      77.9799   -5343.0506    0.9647179 
 4225000    77.028344    -5297.307    0.9643823 
 4230000    76.841771   -5259.6581   0.96404685 
 4235000    76.411572   -5270.6513   0.96371156 
 4240000    77.404775    -5386.784   0.96337643 
 4245000    76.635356   -5472.0177   0.96304145 
 4250000    76.775701   -5594.3927   0.96270662 
 4255000    78.003641   -5363.7849   0.96237195 
 4260000    76.634317   -5477.7525   0.96203744 
 4265000    76.234743   -5536.8269   0.96170308 
 4270000    77.048153   -5531.0431   0.96136888 
 4275000     75.55283   -5656.1567   0.96103483 
 4280000    77.794821   -5335.3027   0.96070093 
 4285000    78.237675   -5487.8073   0.96036719 
 4290000    77.526057   -5437.6353   0.96003361 
 4295000    77.101293   -5530.7225   0.95970018 
 4300000    77.947992   -5423.9537    0.9593669 
 4305000    76.282168   -5422.2257   0.95903378 
 4310000    76.124908   -5463.1953   0.95870081 
 4315000    77.081554   -5583.3095     0.958368 
 4320000    75.990327   -5328.2549   0.95803534 
 4325000    75.199791   -5343.5657   0.95770283 
 4330000    77.150539   -5830.0341   0.95737048 
 4335000    76.969904   -5609.3088   0.95703828 
 4340000    77.137652   -5405.1337   0.95670624 
 4345000    79.019632   -5719.6139   0.95637434 
 4350000    76.722535   -5682.2679   0.95604261 
 4355000    77.325494   -5685.9188   0.95571102 
 4360000    77.395901   -5544.2012   0.95537959 
 4365000    77.506051   -5740.9732   0.95504832 
 4370000    75.949518   -5849.0355   0.95471719 
 4375000    77.554828   -5782.9021   0.95438622 
 4380000    76.425413   -5914.8256    0.9540554 
 4385000    76.519846   -5729.1163   0.95372474 
 4390000    78.088044   -5697.3738   0.95339422 
 4395000    76.483943   -5788.0177   0.95306386 
 4400000    76.526829   -5709.0813   0.95273366 
 4405000    76.575691   -5931.5104    0.9524036 
 4410000    76.570807   -5592.0598    0.9520737 
 4415000    76.966805   -5704.9034   0.95174395 
 4420000    77.429387    -5830.835   0.95141435 
 4425000    77.502432   -5794.1878   0.95108491 
 4430000    76.715202   -5699.5223   0.95075561 
 4435000    77.556083   -5758.9636   0.95042647 
 4440000    76.743448    -5994.217   0.95009748 
 4445000    77.422696   -6027.8201   0.94976864 
 4450000    76.808958   -5849.3994   0.94943996 
 4455000     77.83773   -5771.0254   0.94911142 
 4460000    76.714458   -5975.3559   0.94878304 
 4465000    78.823084   -5798.0883   0.94845481 
 4470000    77.115665   -5791.0757   0.94812673 
 4475000     76.66567   -6036.6043    0.9477988 
 4480000    76.459173   -5958.2462   0.94747102 
 4485000    77.980908   -5897.3297    0.9471434 
 4490000    77.052803   -5965.9329   0.94681592 
 4495000    76.439759   -5947.6099    0.9464886 
 4500000    77.441419   -6064.8377   0.94616142 
 4505000    77.618596   -5977.4775    0.9458344 
 4510000    76.347474   -6095.3466   0.94550753 
 4515000    77.571789   -6195.2978   0.94518081 
 4520000    77.522521   -6042.7014   0.94485424 
 4525000    75.768614   -6100.1084   0.94452782 
 4530000    76.413241   -5990.3128   0.94420155 
 4535000    77.805398   -6042.9058   0.94387543 
 4540000    76.263884   -6185.4331   0.94354946 
 4545000    77.166208   -6027.3426   0.94322364 
 4550000     78.06778   -6177.6894   0.94289797 
 4555000    77.132103   -6410.0104   0.94257245 
 4560000    76.533864   -5882.9882   0.94224708 
 4565000    77.662232   -6199.3924   0.94192186 
 4570000    77.972098   -6097.0596   0.94159679 
 4575000     76.41104   -6185.2383   0.94127187 
 4580000    77.235488   -5951.8588   0.94094709 
 4585000    77.509534   -6000.2222   0.94062247 
 4590000     77.82805   -6213.3147     0.940298 
 4595000    76.343874   -5919.4501   0.93997368 
 4600000    77.921767   -6038.6069    0.9396495 
 4605000    77.090831   -6022.1482   0.93932548 
 4610000    76.087969   -5954.9041    0.9390016 
 4615000    77.205754   -6129.6732   0.93867787 
 4620000    75.824293   -5939.7736   0.93835429 
 4625000     76.89364   -6017.7088   0.93803086 
 4630000    75.727219   -5965.3017   0.93770758 
 4635000    76.509173   -5622.0631   0.93738445 
 4640000    77.088355   -5852.6116   0.93706147 
 4645000    76.849163   -5934.7266   0.93673863 
 4650000    76.448112   -5839.7358   0.93641594 
 4655000     75.87819   -5820.8459    0.9360934 
 4660000    77.446239   -5914.8871   0.93577101 
 4665000    77.161245   -6043.4972   0.93544877 
 4670000    76.970768   -5881.2468   0.93512667 
 4675000    75.801593   -5923.6159   0.93480472 
 4680000    77.496164   -5613.5453   0.93448292 
 4685000    77.701639    -5695.506   0.93416127 
 4690000    76.306762   -5831.4703   0.93383977 
 4695000    77.417807   -5774.7347   0.93351841 
 4700000    76.528928   -5897.2649    0.9331972 
 4705000    77.278619   -6027.8634   0.93287614 
 4710000    77.073513    -5948.581   0.93255522 
 4715000    77.522044   -6007.8207   0.93223446 
 4720000    77.939416   -5944.5901   0.93191384 
 4725000    77.468341   -5912.4504   0.93159336 
 4730000    77.063142   -5772.5097   0.93127303 
 4735000    77.059422   -5862.9838   0.93095285 
 4740000    76.791168   -5989.1568   0.93063282 
 4745000    76.413611   -5777.3202   0.93031294 
 4750000    77.373875   -5936.0596    0.9299932 
 4755000    77.199503   -5961.2582    0.9296736 
 4760000    76.221869   -6031.8171   0.92935415 
 4765000    77.484618    -6060.975   0.92903485 
 4770000    77.338944   -6024.0811    0.9287157 
 4775000    77.352066   -6225.4489   0.92839669 
 4780000    77.385219   -6099.7421   0.92807783 
 4785000    77.701755   -6136.0473   0.92775911 
 4790000    77.347076   -6150.5776   0.92744054 
 4795000    76.651088   -6244.3763   0.92712212 
 4800000    76.477142    -6233.534   0.92680384 
 4805000    77.626458   -6133.5721   0.92648571 
 4810000     77.00948   -6215.0658   0.92616772 
 4815000    77.209039   -6242.6804   0.92584988 
 4820000    77.902878   -6370.3714   0.92553218 
 4825000    77.868831   -6306.0571   0.92521463 
 4830000    75.076071   -6198.8886   0.92489722 
 4835000    78.047282   -6199.3252   0.92457996 
 4840000    77.590608   -6282.7377   0.92426285 
 4845000    77.817069    -6286.195   0.92394588 
 4850000    76.534134   -6203.3035   0.92362905 
 4855000     76.40817    -6296.271   0.92331237 
 4860000     76.29906   -6330.6211   0.92299583 
 4865000    76.400043   -6187.7837   0.92267944 
 4870000    76.678426   -6224.9234    0.9223632 
 4875000    76.829882   -6349.6962   0.92204709 
 4880000    76.401567   -6103.1741   0.92173114 
 4885000    75.926178   -6183.6415   0.92141532 
 4890000    77.113572   -6346.4168   0.92109965 
 4895000    76.015728   -6276.8278   0.92078413 
 4900000    77.444421   -6134.2825   0.92046875 
 4905000    76.738528   -6141.4096   0.92015351 
 4910000    76.331022   -6414.2743   0.91983842 
 4915000    78.118562   -6522.7662   0.91952347 
 4920000    77.706753   -6298.5489   0.91920866 
 4925000    76.951277   -6308.2489     0.918894 
 4930000    77.210751   -6483.9793   0.91857948 
 4935000     76.89654   -6373.2813   0.91826511 
 4940000    75.859054   -6442.4515   0.91795088 
 4945000    77.451705   -6270.0711   0.91763679 
 4950000    76.193204   -6592.1241   0.91732284 
 4955000    77.512481   -6390.6986   0.91700904 
 4960000    77.165427   -6234.0665   0.91669538 
 4965000    76.393909   -6342.7768   0.91638187 
 4970000    77.601347   -6442.9159    0.9160685 
 4975000    77.308049   -6374.7389   0.91575527 
 4980000    75.063196   -6447.6508   0.91544218 
 4985000    76.870108   -6577.5356   0.91512924 
 4990000    76.197052   -6524.3075   0.91481644 
 4995000    77.707554   -6354.6311   0.91450378 
 5000000    76.823023   -6442.4272   0.91419126 
 5005000    76.506305   -6411.6262   0.91387889 
 5010000    77.188163   -6255.0381   0.91356665 
 5015000    76.670743    -6387.902   0.91325457 
 5020000    76.947332   -6489.7543   0.91294262 
 5025000     77.81021   -6446.5371   0.91263081 
 5030000    76.830798   -6377.9713   0.91231915 
 5035000    76.796733   -6518.8925   0.91200763 
 5040000    76.351343   -6358.3396   0.91169625 
 5045000    76.297851   -6626.6617   0.91138501 
 5050000    77.408633   -6619.0409   0.91107391 
 5055000    76.525441    -6707.181   0.91076296 
 5060000    76.842534   -6591.0589   0.91045215 
 5065000    76.531175   -6642.4165   0.91014148 
 5070000    76.895781   -6624.4475   0.90983094 
 5075000    77.616933    -6631.718   0.90952056 
 5080000    77.052006    -6645.232   0.90921031 
 5085000    77.818324   -6656.3585    0.9089002 
 5090000    75.798097   -6683.6969   0.90859024 
 5095000    77.600141    -6702.202   0.90828041 
 5100000    76.563851   -6903.4178   0.90797073 
 5105000    77.209947   -6761.3566   0.90766118 
 5110000    76.610191   -6650.1724   0.90735178 
 5115000    77.885546   -6937.4389   0.90704252 
 5120000    76.516689   -6863.5921    0.9067334 
 5125000    77.568331   -6876.8046   0.90642442 
 5130000        76.49   -6683.8813   0.90611558 
 5135000    77.980834   -6778.7291   0.90580687 
 5140000    76.837288   -6797.2408   0.90549831 
 5145000    77.828017   -6849.2131   0.90518989 
 5150000    77.482839   -6820.1093   0.90488161 
 5155000    75.922087   -6871.7822   0.90457347 
 5160000    78.318892   -6871.4411   0.90426547 
 5165000    76.715094   -6784.8776   0.90395761 
 5170000    78.244356   -6798.2372   0.90364989 
 5175000    77.410447   -6717.0621   0.90334231 
 5180000       77.003   -6745.4603   0.90303487 
 5185000    77.176624   -6805.5571   0.90272757 
 5190000    76.297947   -6794.7127   0.90242041 
 5195000    75.587817   -7043.2596   0.90211338 
 5200000    77.292378   -7020.1738    0.9018065 
 5205000    77.042663   -6742.8269   0.90149976 
 5210000    77.195365   -6805.2591   0.90119315 
 5215000    75.183763   -6863.5574   0.90088668 
 5220000    76.660124   -6948.9806   0.90058036 
 5225000    76.493542   -7023.3883   0.90027417 
 5230000    76.165855   -6885.5661   0.89996812 
 5235000     76.59132   -6972.8786   0.89966221 
 5240000    78.375566   -6872.6704   0.89935643 
 5245000    77.356475   -6940.0295    0.8990508 
 5250000     76.89843   -6920.7741    0.8987453 
 5255000     76.25606   -6963.9869   0.89843995 
 5260000    76.854221   -6884.5887   0.89813473 
 5265000     77.92186   -6954.1282   0.89782965 
 5270000     76.58468   -6750.0449   0.89752471 
 5275000    76.565625   -6869.9533    0.8972199 
 5280000    77.139988   -6898.6121   0.89691523 
 5285000    76.292069   -6880.9016   0.89661071 
 5290000    79.099078   -6965.6581   0.89630632 
 5295000    77.566563   -6821.9847   0.89600206 
 5300000    77.387117   -6838.7462   0.89569795 
 5305000    75.642009   -6765.0013   0.89539397 
 5310000    77.473988   -6703.8935   0.89509013 
 5315000    77.630795   -6577.5874   0.89478643 
 5320000    77.301379   -6772.4162   0.89448286 
 5325000    79.463767   -6725.7921   0.89417943 
 5330000     77.34017   -6615.8918   0.89387614 
 5335000    78.385511   -6625.0827   0.89357299 
 5340000    77.648243   -6500.2852   0.89326997 
 5345000     75.54758   -6708.8679   0.89296709 
 5350000      76.9607    -6719.974   0.89266435 
 5355000    76.982026   -6661.2171   0.89236175 
 5360000    77.282095   -6831.4332   0.89205928 
 5365000    76.060268   -6774.5036   0.89175695 
 5370000    78.133498   -6734.9696   0.89145475 
 5375000    75.917453   -6804.2592   0.89115269 
 5380000    77.573218   -6773.9154   0.89085077 
 5385000    75.817529   -6778.0669   0.89054898 
 5390000    76.665553   -6817.5333   0.89024733 
 5395000    76.637752    -6852.633   0.88994582 
 5400000    76.850648   -6967.8509   0.88964444 
 5405000     76.03845   -6828.8188    0.8893432 
 5410000    75.380693   -6867.3926   0.88904209 
 5415000    77.860421   -6716.5972   0.88874112 
 5420000    76.846239    -6813.416   0.88844029 
 5425000    77.580049   -6741.3118   0.88813959 
 5430000    77.766526   -6787.8227   0.88783903 
 5435000     76.29556   -6813.2974    0.8875386 
 5440000     77.11965   -6599.0194   0.88723831 
 5445000    78.814939   -6713.9284   0.88693816 
 5450000    77.543395   -6583.3698   0.88663813 
 5455000    78.727067   -6430.4939   0.88633825 
 5460000    76.718283   -6529.2147    0.8860385 
 5465000     77.17846   -6500.1029   0.88573888 
 5470000    76.897668   -6484.8416   0.88543941 
 5475000    77.523339   -6734.0384   0.88514006 
 5480000    77.473069   -6574.9374   0.88484085 
 5485000    74.639748   -6595.5052   0.88454178 
 5490000    77.716154   -6640.3581   0.88424284 
 5495000    76.614301   -6810.1792   0.88394403 
 5500000     77.03987   -6706.2292   0.88364536 
 5505000    76.985904   -6523.0323   0.88334682 
 5510000    77.095193   -6758.8215   0.88304842 
 5515000    77.168152   -6838.3408   0.88275015 
 5520000    77.755263   -6618.2908   0.88245202 
 5525000    77.301316   -6537.4077   0.88215402 
 5530000    76.173044   -6724.5247   0.88185616 
 5535000    78.069812   -6601.7476   0.88155843 
 5540000    78.040314   -6686.1286   0.88126083 
 5545000    76.686049   -6649.9048   0.88096337 
 5550000    77.504649   -6722.9598   0.88066604 
 5555000    76.414405   -6735.5565   0.88036884 
 5560000    75.767863   -6501.9376   0.88007178 
 5565000    75.905409   -6756.1267   0.87977485 
 5570000    77.629303   -6576.7177   0.87947806 
 5575000    76.000874   -6624.7751    0.8791814 
 5580000    76.632717    -6815.395   0.87888487 
 5585000    76.768904   -6813.8564   0.87858848 
 5590000    78.023901     -6760.83   0.87829222 
 5595000    76.707903   -6722.6346   0.87799609 
 5600000    75.944311   -6743.3276    0.8777001 
 5605000    76.966964   -6819.3135   0.87740423 
 5610000    77.616218   -6842.9247   0.87710851 
 5615000    76.720447   -6752.1198   0.87681291 
 5620000    75.177491   -6668.9561   0.87651745 
 5625000    76.649995   -6633.3692   0.87622212 
 5630000    76.828424   -7015.8725   0.87592692 
 5635000    76.243143   -6848.7183   0.87563186 
 5640000    75.961222   -6849.7986   0.87533692 
 5645000    78.795094   -6758.8448   0.87504212 
 5650000    77.818788   -6837.9685   0.87474746 
 5655000     76.78243   -6773.5163   0.87445292 
 5660000     77.44574   -6958.3614   0.87415852 
 5665000    78.257583   -6821.4922   0.87386425 
 5670000    76.475498   -6748.9448   0.87357011 
 5675000    76.592732   -6891.7451    0.8732761 
 5680000    77.030995   -6840.7193   0.87298223 
 5685000    77.462257    -6926.739   0.87268848 
 5690000    75.011331   -7001.2289   0.87239487 
 5695000    77.491178   -6825.4319   0.87210139 
 5700000     76.41582   -6787.9751   0.87180805 
 5705000    77.237792   -6963.3052   0.87151483 
 5710000    75.791909   -6881.1265   0.87122174 
 5715000    77.230836   -7018.2699   0.87092879 
 5720000    75.896784   -6947.8939   0.87063597 
 5725000    78.552385   -6984.4182   0.87034328 
 5730000    76.652426   -6919.0177   0.87005072 
 5735000    77.779574   -6931.5924   0.86975829 
 5740000     77.42953   -7050.4339   0.86946599 
 5745000    77.092775   -6975.4824   0.86917383 
 5750000    77.977287   -7004.5304   0.86888179 
 5755000    76.764298   -6918.4441   0.86858989 
 5760000    75.775962   -6975.7553   0.86829811 
 5765000    74.941564   -6994.1434   0.86800647 
 5770000     75.85343    -7088.945   0.86771496 
 5775000    76.953233   -6890.9558   0.86742357 
 5780000    78.152199   -6848.9437   0.86713232 
 5785000    77.464705   -6933.7704    0.8668412 
 5790000    75.659208   -7094.9163   0.86655021 
 5795000    76.420568   -6946.4459   0.86625935 
 5800000    75.123336   -6863.1812   0.86596862 
 5805000    76.261753   -6997.4007   0.86567802 
 5810000    77.414375    -6917.566   0.86538755 
 5815000    77.282244   -6733.0707    0.8650972 
 5820000    77.652868   -6896.4545   0.86480699 
 5825000     76.82507   -6954.7062   0.86451691 
 5830000    78.861623   -6878.8329   0.86422696 
 5835000     77.80968   -6924.7328   0.86393714 
 5840000    76.360935   -6846.4375   0.86364745 
 5845000     77.31537   -7000.0182   0.86335788 
 5850000    75.809623   -6955.2188   0.86306845 
 5855000    77.021879   -7134.0751   0.86277915 
 5860000     77.53819   -7013.2588   0.86248997 
 5865000    76.474629   -6905.5793   0.86220093 
 5870000    75.893066   -7040.0636   0.86191201 
 5875000    76.769295   -6997.5476   0.86162322 
 5880000    75.885499   -6927.1817   0.86133457 
 5885000    77.865775   -6931.5871   0.86104604 
 5890000    76.529877   -7181.9556   0.86075764 
 5895000    76.231582   -7090.1643   0.86046936 
 5900000    75.987345   -7088.5451   0.86018122 
 5905000    77.365627   -6949.2743   0.85989321 
 5910000    77.350098    -7247.613   0.85960532 
 5915000    77.165469   -7056.1436   0.85931756 
 5920000    76.365232   -6971.4912   0.85902994 
 5925000    77.283179   -7105.4607   0.85874244 
 5930000    76.678116    -7075.651   0.85845506 
 5935000    78.062863   -7079.6004   0.85816782 
 5940000    76.236159   -7159.9354    0.8578807 
 5945000    77.387067    -7124.668   0.85759372 
 5950000    77.064361   -7124.6819   0.85730686 
 5955000     75.74274   -6963.9581   0.85702012 
 5960000     77.02154   -7189.8168   0.85673352 
 5965000    77.493778   -7218.7299   0.85644704 
 5970000    76.850343   -7105.2634    0.8561607 
 5975000    76.737931   -7124.2603   0.85587448 
 5980000    78.225547   -7120.4136   0.85558838 
 5985000    77.749701   -7196.4339   0.85530242 
 5990000    77.829664   -7165.4646   0.85501658 
 5995000    76.886187   -7172.0935   0.85473087 
 6000000    75.975994   -7057.3967   0.85444528 
 6005000    77.793017   -7097.0616   0.85415983 
 6010000    77.377617   -7137.4744    0.8538745 
 6015000    77.396402   -7180.2493    0.8535893 
 6020000    77.380205   -7182.6291   0.85330422 
 6025000    77.057257   -7161.7247   0.85301927 
 6030000     78.43093   -7064.9653   0.85273445 
 6035000    76.649667   -7191.9129   0.85244976 
 6040000     77.27301   -7058.5521   0.85216519 
 6045000    75.856934   -7061.2631   0.85188075 
 6050000    76.525818   -6978.1425   0.85159643 
 6055000    76.808887   -7116.9952   0.85131224 
 6060000    77.515453   -7119.6729   0.85102818 
 6065000    77.592466   -7181.8375   0.85074425 
 6070000    78.264336   -7067.0589   0.85046044 
 6075000    76.546133   -7141.4272   0.85017675 
 6080000    78.117245   -7193.5967    0.8498932 
 6085000    75.486075      -7212.2   0.84960977 
 6090000    76.027998   -7151.3063   0.84932646 
 6095000    77.389182   -7215.7969   0.84904328 
 6100000    75.546998   -7234.2664   0.84876023 
 6105000    76.819632   -7170.3758    0.8484773 
 6110000    76.326152   -7025.8308    0.8481945 
 6115000    76.700521   -7257.9829   0.84791183 
 6120000    77.640877   -7294.3956   0.84762928 
 6125000    77.245646   -7190.4183   0.84734685 
 6130000    76.377079   -7128.4643   0.84706455 
 6135000    76.197568   -7365.0819   0.84678238 
 6140000    77.789283   -7156.9556   0.84650033 
 6145000    77.138193   -7209.3771   0.84621841 
 6150000    76.539563   -7224.9876   0.84593661 
 6155000    79.432495   -7297.9613   0.84565494 
 6160000    76.518179    -7311.857   0.84537339 
 6165000    76.345707   -7325.7759   0.84509197 
 6170000    77.208422   -7303.2541   0.84481067 
 6175000      77.3259   -7295.2516   0.84452949 
 6180000    77.323195   -7227.7724   0.84424845 
 6185000     76.07829   -7196.4499   0.84396752 
 6190000    77.619282   -7214.8809   0.84368672 
 6195000    77.489486   -7287.6842   0.84340605 
 6200000    78.076656   -7317.9016    0.8431255 
 6205000    76.968522   -7316.5121   0.84284507 
 6210000    76.775203   -7290.4372   0.84256477 
 6215000    76.311878   -7387.0328   0.84228459 
 6220000    77.791096   -7320.0751   0.84200454 
 6225000    76.443512   -7432.9457   0.84172461 
 6230000    76.687834   -7501.8147   0.84144481 
 6235000    76.213616   -7458.7485   0.84116513 
 6240000    76.618568   -7523.9197   0.84088557 
 6245000    75.446618   -7274.6694   0.84060614 
 6250000    75.990232   -7211.0327   0.84032683 
 6255000     76.00774   -7402.0453   0.84004764 
 6260000    76.145198    -7341.699   0.83976858 
 6265000    77.143494   -7379.0293   0.83948965 
 6270000    76.457373   -7229.2129   0.83921083 
 6275000    76.576323   -7310.2631   0.83893214 
 6280000    77.391324   -7252.5016   0.83865357 
 6285000    77.510364   -7191.0156   0.83837513 
 6290000    76.297405   -7231.7073   0.83809681 
 6295000    77.442204   -7295.6221   0.83781861 
 6300000    76.616113   -7323.0127   0.83754053 
 6305000    76.642422   -7327.5031   0.83726258 
 6310000    77.148076   -7220.8242   0.83698475 
 6315000    76.586258   -7201.4754   0.83670705 
 6320000    76.827266   -7234.9776   0.83642947 
 6325000    76.043982   -7221.0405   0.83615201 
 6330000    77.095377   -7209.0116   0.83587467 
 6335000    76.660486   -7046.7879   0.83559745 
 6340000    76.897314   -7239.3428   0.83532036 
 6345000    78.340394   -7089.7297   0.83504339 
 6350000    77.344449   -6978.1148   0.83476654 
 6355000    77.351968   -7169.0209   0.83448982 
 6360000    75.451485   -7237.0132   0.83421322 
 6365000    76.500985   -7234.1068   0.83393674 
 6370000    75.476772   -7210.5357   0.83366038 
 6375000    76.018703   -7188.6431   0.83338414 
 6380000     77.66985   -7190.2976   0.83310803 
 6385000    75.726093    -7237.821   0.83283203 
 6390000    76.704353   -7144.7527   0.83255616 
 6395000    77.132816    -7188.408   0.83228042 
 6400000    75.761803   -7118.9362   0.83200479 
 6405000    76.389495   -7246.5018   0.83172928 
 6410000    76.667742   -7123.8016    0.8314539 
 6415000    76.630531   -6938.9109   0.83117864 
 6420000    76.402112   -7251.5992    0.8309035 
 6425000      75.7875   -7384.4129   0.83062848 
 6430000    77.803026   -7314.8626   0.83035358 
 6435000    76.817492   -7217.4913   0.83007881 
 6440000    76.845281   -7243.2374   0.82980415 
 6445000    77.968586   -7294.8217   0.82952962 
 6450000    76.130604   -7219.0688    0.8292552 
 6455000    77.191939    -7250.607   0.82898091 
 6460000    77.227783   -7206.5078   0.82870674 
 6465000    78.190669   -7267.8278   0.82843269 
 6470000    76.000851   -7182.4922   0.82815876 
 6475000    78.127375   -7234.9497   0.82788495 
 6480000    76.732667   -7119.7736   0.82761127 
 6485000    77.999541   -7317.1693    0.8273377 
 6490000    76.478696   -7222.6004   0.82706425 
 6495000     77.67307   -7320.2364   0.82679093 
 6500000    77.469891   -7343.2615   0.82651772 
 6505000    77.854818   -7202.0522   0.82624464 
 6510000     78.23761   -7294.6181   0.82597167 
 6515000    76.378015   -7407.0328   0.82569883 
 6520000       76.901   -7324.3315    0.8254261 
 6525000    77.787507   -7117.3822    0.8251535 
 6530000    77.455228   -7258.6421   0.82488101 
 6535000    75.811973   -7151.0058   0.82460865 
 6540000    77.164178   -7233.7472    0.8243364 
 6545000    76.974819   -7182.4088   0.82406428 
 6550000    77.379425   -7145.6307   0.82379227 
 6555000     77.09643   -7374.2321   0.82352039 
 6560000    77.909433   -7168.1609   0.82324862 
 6565000    77.510853   -7288.3926   0.82297698 
 6570000    77.025434   -7427.1665   0.82270545 
 6575000    76.562733   -7192.0963   0.82243404 
 6580000    77.002404   -7141.7738   0.82216276 
 6585000    76.680443   -7326.3215   0.82189159 
 6590000    77.425867   -7206.6613   0.82162054 
 6595000    76.847128   -7135.0917   0.82134961 
 6600000    77.838005    -7227.902    0.8210788 
 6605000    75.380578   -7178.7568    0.8208081 
 6610000    77.319179   -7192.5524   0.82053753 
 6615000    76.869832   -7220.2175   0.82026708 
 6620000    76.249371   -7121.1239   0.81999674 
 6625000    76.328711    -7195.706   0.81972653 
 6630000    76.873648   -7234.0427   0.81945643 
 6635000    77.450225   -7170.4292   0.81918645 
 6640000    76.767186   -7247.5541   0.81891659 
 6645000    76.196325   -7214.9346   0.81864685 
 6650000    75.518111   -7326.7024   0.81837722 
 6655000    77.621445   -7310.2473   0.81810772 
 6660000    76.581712   -7410.2256   0.81783833 
 6665000    77.759817   -7364.1753   0.81756906 
 6670000    75.603855    -7277.048   0.81729991 
 6675000    76.688479   -7303.0977   0.81703088 
 6680000    77.662128   -7299.5568   0.81676197 
 6685000    76.859467   -7514.5347   0.81649317 
 6690000    77.046735    -7364.408   0.81622449 
 6695000    75.230397    -7378.871   0.81595593 
 6700000    77.227432   -7215.7762   0.81568749 
 6705000    76.480862   -7413.4516   0.81541916 
 6710000    77.790105   -7309.3257   0.81515096 
 6715000    76.778499   -7494.1074   0.81488287 
 6720000     77.61243   -7292.9455    0.8146149 
 6725000    76.017357   -7345.8652   0.81434704 
 6730000    77.480778   -7260.9343    0.8140793 
 6735000    76.968561   -7348.3275   0.81381168 
 6740000     76.91283   -7298.9566   0.81354418 
 6745000    76.427029   -7281.2522    0.8132768 
 6750000    76.620933   -7203.0671   0.81300953 
 6755000     77.91729   -7262.9168   0.81274238 
 6760000    76.025308   -7190.0864   0.81247534 
 6765000    77.117916   -7212.9678   0.81220843 
 6770000    76.240377   -7300.2112   0.81194163 
 6775000    76.515255   -7426.6301   0.81167494 
 6780000     75.29767   -7232.7944   0.81140838 
 6785000    76.239443   -7384.1784   0.81114193 
 6790000    79.167111   -7294.4768   0.81087559 
 6795000    77.386263   -7402.7035   0.81060938 
 6800000    76.630362   -7278.2299   0.81034328 
 6805000    75.136783   -7464.1745   0.81007729 
 6810000    77.524396   -7218.0334   0.80981143 
 6815000    76.421443   -7306.8864   0.80954568 
 6820000     78.14546   -7316.0159   0.80928004 
 6825000    76.514186   -7372.7548   0.80901452 
 6830000    76.897516   -7379.4768   0.80874912 
 6835000    78.016343   -7254.7365   0.80848384 
 6840000    76.317575   -7367.3896   0.80821867 
 6845000    76.877087   -7401.8946   0.80795361 
 6850000    77.347113   -7425.0334   0.80768867 
 6855000    77.881419   -7381.2599   0.80742385 
 6860000    76.661497   -7335.4325   0.80715914 
 6865000    76.989259   -7342.2574   0.80689455 
 6870000    78.404151   -7376.8901   0.80663008 
 6875000    76.890303   -7279.6421   0.80636572 
 6880000    77.842221   -7349.8104   0.80610147 
 6885000    75.411906   -7425.0333   0.80583735 
 6890000    76.773257   -7367.8114   0.80557333 
 6895000    77.436817   -7454.1166   0.80530943 
 6900000    76.179926   -7349.9919   0.80504565 
 6905000    76.686266   -7358.0437   0.80478198 
 6910000    76.921384    -7392.779   0.80451843 
 6915000    76.272697   -7400.4644   0.80425499 
 6920000    77.160198   -7518.8897   0.80399167 
 6925000    75.502826   -7533.8692   0.80372846 
 6930000     76.14971   -7266.7607   0.80346537 
 6935000    77.986581   -7250.1724   0.80320239 
 6940000    76.790273   -7314.7937   0.80293953 
 6945000    77.407083   -7432.5704   0.80267678 
 6950000    76.270532   -7453.1892   0.80241415 
 6955000    77.323809   -7466.7777   0.80215163 
 6960000    77.347646   -7411.3282   0.80188922 
 6965000    78.677837   -7255.5081   0.80162693 
 6970000    75.718145   -7541.7094   0.80136476 
 6975000    77.787589   -7287.6045    0.8011027 
 6980000    75.166096   -7397.3867   0.80084075 
 6985000    76.845548   -7391.8869   0.80057892 
 6990000    75.221485    -7338.724    0.8003172 
 6995000    77.200492   -7345.7294   0.80005559 
 7000000    77.575877   -7206.2895    0.7997941 
Loop time of 47977.3 on 6 procs for 7000000 steps with 8640 atoms

Performance: 25.212 ns/day, 0.952 hours/ns, 145.902 timesteps/s
103.0% CPU use with 6 MPI tasks x no OpenMP threads

MPI task timing breakdown:
Section |  min time  |  avg time  |  max time  |%varavg| %total
---------------------------------------------------------------
Pair    | 2898.6     | 3026       | 3083.5     | 110.5 |  6.31
Bond    | 1.7814     | 1.9687     | 2.2882     |  15.5 |  0.00
Kspace  | 25249      | 25390      | 25581      |  69.8 | 52.92
Neigh   | 1.7304     | 5.0876     | 6.9178     | 104.4 |  0.01
Comm    | 1747.8     | 1846.5     | 1991.3     | 172.0 |  3.85
Output  | 1.9707     | 2.2746     | 3.3242     |  32.7 |  0.00
Modify  | 17522      | 17590      | 17663      |  37.3 | 36.66
Other   |            | 116.3      |            |       |  0.24

Nlocal:        1440.00 ave        1546 max        1326 min
Histogram: 1 0 0 1 1 1 0 1 0 1
Nghost:        12201.8 ave       12355 max       12109 min
Histogram: 2 1 0 1 0 0 1 0 0 1
Neighs:         0.00000 ave           0 max           0 min
Histogram: 6 0 0 0 0 0 0 0 0 0

Total # of neighbors = 0
Ave neighs/atom = 0.0000000
Ave special neighs/atom = 2.0000000
Neighbor list builds = 75963
Dangerous builds = 0

unfix 12
#run 2000000

unfix 2
unfix 3
unfix 1
write_data data.hda_decompr_77
System init for write_data ...
PPPM initialization ...
  extracting TIP4P info from pair style
  using polynomial approximation for long-range coulomb (src/kspace.cpp:341)
  G vector (1/distance) = 0.31248246
  grid = 48 45 45
  stencil order = 5
  estimated absolute RMS force accuracy = 0.0033601568
  estimated relative force accuracy = 1.0119013e-05
  using double precision KISS FFT
  3d grid and FFT values/proc = 35880 17280
WARNING: Not all mixed pair coeffs generated from mixing. Use write_data with 'pair ij' option to store all pair coeffs. (src/write_data.cpp:312)

Total wall time: 13:19:38
