thermo     5000
thermo_style custom step temp press density
thermo_modify norm no flush yes
dump 1 all atom 10000 lda_compr77.dump
run 10000000

CITE-CITE-CITE-CITE-CITE-CITE-CITE-CITE-CITE-CITE-CITE-CITE-CITE

Your simulation uses code contributions which should be cited:

- GPU package (short-range, long-range and three-body potentials):

@Article{Brown11,
 author = {W. M. Brown, P. Wang, S. J. Plimpton, A. N. Tharrington},
 title = {Implementing Molecular Dynamics on Hybrid High Performance Computers - Short Range Forces},
 journal = {Comp.~Phys.~Comm.},
 year =    2011,
 volume =  182,
 pages =   {898--911}
}

@Article{Brown12,
 author = {W. M. Brown, A. Kohlmeyer, S. J. Plimpton, A. N. Tharrington},
 title = {Implementing Molecular Dynamics on Hybrid High Performance Computers - Particle-Particle Particle-Mesh},
 journal = {Comp.~Phys.~Comm.},
 year =    2012,
 volume =  183,
 pages =   {449--459}
}

@Article{Brown13,
 author = {W. M. Brown, Y. Masako},
 title = {Implementing Molecular Dynamics on Hybrid High Performance Computers – Three-Body Potentials},
 journal = {Comp.~Phys.~Comm.},
 year =    2013,
 volume =  184,
 pages =   {2785--2793}
}

@Article{Trung15,
 author = {T. D. Nguyen, S. J. Plimpton},
 title = {Accelerating dissipative particle dynamics simulations for soft matter systems},
 journal = {Comput.~Mater.~Sci.},
 year =    2015,
 volume =  100,
 pages =   {173--180}
}

@Article{Trung17,
 author = {T. D. Nguyen},
 title = {GPU-accelerated Tersoff potentials for massively parallel Molecular Dynamics simulations},
 journal = {Comp.~Phys.~Comm.},
 year =    2017,
 volume =  212,
 pages =   {113--122}
}

@Article{Nikolskiy19,
 author = {V. Nikolskiy, V. Stegailov},
 title = {GPU acceleration of four-site water models in LAMMPS},
 journal = {Proceeding of the International Conference on Parallel Computing (ParCo 2019), Prague, Czech Republic},
 year =    2019
}

CITE-CITE-CITE-CITE-CITE-CITE-CITE-CITE-CITE-CITE-CITE-CITE-CITE

PPPM initialization ...
  extracting TIP4P info from pair style
  using polynomial approximation for long-range coulomb (src/kspace.cpp:341)
  G vector (1/distance) = 0.31399426
  grid = 45 45 45
  stencil order = 5
  estimated absolute RMS force accuracy = 0.0033067979
  estimated relative force accuracy = 9.9583238e-06
  using double precision KISS FFT
  3d grid and FFT values/proc = 34320 16200
WARNING: Increasing communication cutoff for TIP4P GPU style (src/GPU/pair_lj_cut_tip4p_long_gpu.cpp:229)
Per MPI rank memory allocation (min/avg/max) = 11.77 | 11.83 | 11.89 Mbytes
Step Temp Press Density 
       0    76.901273   -2120.6317   0.93625188 
    5000    78.585277   -2215.3499   0.93642043 
   10000    76.736324    -2094.608   0.93658901 
   15000    76.948456   -2069.0911   0.93675764 
   20000    77.506745   -2054.2374   0.93692631 
   25000    77.291861   -2029.0466   0.93709501 
   30000    76.265018   -1885.7895   0.93726376 
   35000    75.231721   -2059.6992   0.93743255 
   40000     77.74155   -1994.9626   0.93760138 
   45000    78.021248   -2156.4531   0.93777025 
   50000    77.806271   -1926.9112   0.93793916 
   55000    78.246945   -1929.6222   0.93810811 
   60000    77.040135   -1773.3916    0.9382771 
   65000    76.435657   -1928.4108   0.93844613 
   70000    75.093329   -1871.1685   0.93861521 
   75000    77.071448   -1938.3731   0.93878432 
   80000    76.707855    -1825.101   0.93895347 
   85000    76.670984    -1929.076   0.93912267 
   90000    76.194268   -1887.4011    0.9392919 
   95000    78.012987   -1824.0757   0.93946118 
  100000    75.613664   -1752.0175   0.93963049 
  105000    76.415418   -1744.4757   0.93979985 
  110000    77.163479   -1879.3813   0.93996925 
  115000    76.568907   -1838.9121   0.94013869 
  120000    78.115915   -1791.0466   0.94030817 
  125000     75.44449   -1893.6418   0.94047769 
  130000    78.223714   -1627.0387   0.94064725 
  135000    77.265447   -1601.1441   0.94081685 
  140000    76.374588    -1760.707   0.94098649 
  145000    76.091406   -1790.2118   0.94115617 
  150000    76.551165    -1670.923    0.9413259 
  155000    77.278478    -1530.717   0.94149566 
  160000    77.247608   -1631.9822   0.94166547 
  165000    75.870108   -1558.5256   0.94183531 
  170000      77.3765   -1658.4697    0.9420052 
  175000     77.32565   -1538.0344   0.94217513 
  180000    75.969753   -1515.2659    0.9423451 
  185000    77.772478   -1488.0967   0.94251511 
  190000    76.931969    -1504.629   0.94268516 
  195000    77.901431   -1503.7799   0.94285525 
  200000    76.263558   -1401.8192   0.94302538 
  205000     75.55987   -1354.8715   0.94319556 
  210000    77.305138   -1529.1744   0.94336577 
  215000    76.937514   -1429.6783   0.94353603 
  220000    76.986384    -1304.487   0.94370632 
  225000    76.827925   -1403.7168   0.94387666 
  230000    77.865585   -1307.4343   0.94404704 
  235000    78.007011   -1325.6253   0.94421746 
  240000    76.209651   -1360.8425   0.94438792 
  245000    77.473012    -1384.774   0.94455842 
  250000     76.32409   -1399.1722   0.94472896 
  255000    77.557407   -1270.9021   0.94489954 
  260000    77.466545   -1237.0932   0.94507017 
  265000    75.026211   -1267.8843   0.94524083 
  270000    77.481278   -1183.9307   0.94541154 
  275000    76.929678   -1150.1877   0.94558229 
  280000    76.670516   -1111.8531   0.94575308 
  285000    76.187736   -1301.9211   0.94592391 
  290000    75.694626   -1167.1666   0.94609478 
  295000    76.987026   -947.52255   0.94626569 
  300000    77.564409   -1104.4578   0.94643664 
  305000    77.047916   -1136.6559   0.94660764 
  310000     77.62991   -1012.0017   0.94677868 
  315000    77.130337   -1123.8448   0.94694975 
  320000    76.602418   -1098.7227   0.94712087 
  325000    76.545628   -1041.7307   0.94729203 
  330000    76.763097   -792.94097   0.94746323 
  335000    76.113812   -992.18304   0.94763447 
  340000      76.0671    -1023.689   0.94780576 
  345000    76.864167   -839.70138   0.94797708 
  350000    77.165571   -1038.8658   0.94814845 
  355000    77.712959   -987.92616   0.94831985 
  360000    77.379859   -1026.1851    0.9484913 
  365000    77.239714   -785.44682   0.94866279 
  370000    77.429357   -841.56971   0.94883432 
  375000     75.52897   -884.06438    0.9490059 
  380000     77.77249   -812.63787   0.94917751 
  385000    77.462861   -729.46446   0.94934917 
  390000     76.03865   -760.97965   0.94952086 
  395000    76.911146   -619.51855    0.9496926 
  400000    76.443624    -708.2002   0.94986438 
  405000    77.973683    -735.9105    0.9500362 
  410000    78.430227   -867.37999   0.95020806 
  415000      76.8994   -705.12996   0.95037997 
  420000     77.14633   -807.95177   0.95055191 
  425000    76.764868   -653.18216    0.9507239 
  430000    76.122866   -453.46606   0.95089593 
  435000    77.199659   -608.49854     0.951068 
  440000    78.179599   -357.68187   0.95124011 
  445000    77.300524   -722.57118   0.95141226 
  450000    77.860199   -608.69951   0.95158446 
  455000    76.290064   -476.08829   0.95175669 
  460000    75.796526   -617.69613   0.95192897 
  465000    77.134577   -597.24983   0.95210129 
  470000    78.014316   -533.18539   0.95227365 
  475000    78.242893   -473.01684   0.95244605 
  480000    76.964596    -398.3629    0.9526185 
  485000    75.317358   -292.51524   0.95279098 
  490000    77.156452   -407.22727   0.95296351 
  495000    76.444533   -441.60069   0.95313608 
  500000    76.998557   -487.11713   0.95330869 
  505000    76.963115   -222.62608   0.95348134 
  510000    77.305578   -466.77897   0.95365403 
  515000    77.341215   -224.40788   0.95382677 
  520000     78.09908   -388.53024   0.95399955 
  525000    78.050541    -333.1436   0.95417237 
  530000    77.112679   -122.01353   0.95434523 
  535000    78.059938   -315.02813   0.95451813 
  540000    77.342603     -76.7709   0.95469107 
  545000    76.298014   -231.93642   0.95486406 
  550000     77.09342   -365.96745   0.95503709 
  555000    77.940437   -367.90547   0.95521016 
  560000    77.328847   -69.853672   0.95538327 
  565000    77.045206   -364.51232   0.95555642 
  570000    77.511503   -254.84704   0.95572962 
  575000    76.435089   -186.04047   0.95590285 
  580000     75.96059   -161.69459   0.95607613 
  585000    77.168219   -71.871058   0.95624945 
  590000    76.469752   -48.656722   0.95642282 
  595000    76.603927   -95.248332   0.95659622 
  600000    78.570453    -5.449058   0.95676967 
  605000    75.880144   -29.581082   0.95694316 
  610000    77.800468     137.9056   0.95711669 
  615000    76.992675   -71.511786   0.95729026 
  620000    77.394867    46.209274   0.95746387 
  625000    76.411204    53.475686   0.95763753 
  630000    76.998025    59.674944   0.95781123 
  635000    77.568151    71.903619   0.95798497 
  640000    76.668474    32.649455   0.95815875 
  645000    76.735361    44.915022   0.95833257 
  650000     76.31421   -30.629535   0.95850644 
  655000    76.300537    75.885653   0.95868035 
  660000     77.69182    70.840996    0.9588543 
  665000    76.788317    285.46501   0.95902829 
  670000    79.522609    242.26054   0.95920233 
  675000    76.353656    253.20146    0.9593764 
  680000    77.872031    162.18813   0.95955052 
  685000    77.331633    323.48299   0.95972469 
  690000    77.684406    311.43872   0.95989889 
  695000     76.77402    372.78802   0.96007313 
  700000    77.712096    415.59928   0.96024742 
  705000    76.008794    188.03818   0.96042175 
  710000    75.818026    307.34279   0.96059612 
  715000    77.170697    565.07576   0.96077054 
  720000    76.242878    616.84816   0.96094499 
  725000    76.376133     222.2919   0.96111949 
  730000    75.705377    337.79799   0.96129403 
  735000    77.036721    375.20874   0.96146862 
  740000    76.963604    553.32522   0.96164324 
  745000    76.276549    490.61766   0.96181791 
  750000    77.741814    443.99969   0.96199262 
  755000    78.130795    386.40549   0.96216737 
  760000    77.887377    473.02899   0.96234217 
  765000    76.414579    356.83178     0.962517 
  770000    77.986235    654.89366   0.96269188 
  775000     76.15856    509.62705   0.96286681 
  780000     78.04909    451.38006   0.96304177 
  785000    77.687173    728.09662   0.96321678 
  790000    76.387574    737.52202   0.96339183 
  795000    76.983384    639.89975   0.96356692 
  800000    76.812556    745.79514   0.96374205 
  805000    78.167513    648.41754   0.96391723 
  810000    75.690816    734.27716   0.96409245 
  815000    77.838527    657.10722   0.96426771 
  820000    74.874389    666.29099   0.96444301 
  825000    77.476208    698.08143   0.96461836 
  830000    76.092055    632.12574   0.96479375 
  835000    77.881654    772.14701   0.96496918 
  840000     76.65028    691.11175   0.96514465 
  845000    77.336355    678.46998   0.96532017 
  850000    77.200841    915.28249   0.96549573 
  855000    76.134485    594.98606   0.96567133 
  860000    76.395797    885.87083   0.96584697 
  865000    76.943141    745.88971   0.96602266 
  870000    76.703505    961.84769   0.96619839 
  875000    77.029901    782.07822   0.96637416 
  880000    77.232678    808.10042   0.96654997 
  885000    77.400755    981.70902   0.96672583 
  890000    75.807977    948.38636   0.96690173 
  895000    77.958563    963.81819   0.96707767 
  900000     75.48139     1072.716   0.96725366 
  905000     77.63978    1083.7125   0.96742969 
  910000    77.102884    967.90382   0.96760576 
  915000    76.600054    1232.9765   0.96778187 
  920000    76.679731    1144.9152   0.96795803 
  925000    76.890661    966.88496   0.96813422 
  930000     77.57493    1199.6726   0.96831047 
  935000     76.97181    1044.8388   0.96848675 
  940000    77.472004    1121.8691   0.96866308 
  945000    76.864979    1011.2348   0.96883945 
  950000    77.347623    1019.6441   0.96901586 
  955000    75.906125    1200.9254   0.96919232 
  960000    77.230612    1196.4998   0.96936881 
  965000    76.368924    1274.0832   0.96954536 
  970000     78.11949    1143.0152   0.96972194 
  975000    77.794284     1291.024   0.96989857 
  980000    77.141126    1338.4767   0.97007524 
  985000    77.058971    1231.1105   0.97025195 
  990000    77.418394    1151.2462   0.97042871 
  995000    76.922974    1380.5712    0.9706055 
 1000000    77.400866     1509.029   0.97078235 
 1005000    77.634503    1148.3558   0.97095923 
 1010000    77.119209    1388.4633   0.97113616 
 1015000    78.390024     1260.065   0.97131313 
 1020000    75.433652    1473.9473   0.97149014 
 1025000    77.251893    1405.8096    0.9716672 
 1030000    76.500143      1601.99    0.9718443 
 1035000    77.338296     1381.645   0.97202144 
 1040000    75.309236    1530.4584   0.97219863 
 1045000     77.01189    1296.3198   0.97237586 
 1050000    75.869396    1433.5976   0.97255313 
 1055000    76.855847    1516.7644   0.97273044 
 1060000    76.440201    1464.7561    0.9729078 
 1065000     77.01317    1343.6211    0.9730852 
 1070000    75.316014    1518.2986   0.97326265 
 1075000    77.359332    1383.3569   0.97344013 
 1080000    77.194865    1893.6043   0.97361767 
 1085000    78.440811    1665.3226   0.97379524 
 1090000    75.680155    1637.3451   0.97397286 
 1095000    77.091305    1612.4894   0.97415052 
 1100000    77.430468    1579.7039   0.97432822 
 1105000    77.086069    1690.0989   0.97450597 
 1110000    75.681777    1793.3454   0.97468376 
 1115000    76.578699    1580.3628   0.97486159 
 1120000    77.996493    1868.5887   0.97503947 
 1125000    77.247303     1828.924   0.97521739 
 1130000    76.490629    1649.4139   0.97539535 
 1135000    77.937864    1634.0531   0.97557336 
 1140000    78.272472    1756.9106    0.9757514 
 1145000    76.377428    1763.6045    0.9759295 
 1150000    76.395947    1912.3827   0.97610763 
 1155000    76.835991    1706.6477   0.97628581 
 1160000    77.025112    1828.9621   0.97646404 
 1165000    78.849951    1964.0543    0.9766423 
 1170000    76.541518    1826.6494   0.97682061 
 1175000    77.839055    1924.0987   0.97699897 
 1180000    76.187788    1877.7164   0.97717736 
 1185000    77.793313    1785.1818    0.9773558 
 1190000    75.335718    1825.1153   0.97753429 
 1195000    78.050786    2024.0423   0.97771281 
 1200000    77.871322    2110.0296   0.97789138 
 1205000    77.880789    2034.0076      0.97807 
 1210000    76.157438    1920.7381   0.97824865 
 1215000    77.042571    2068.3857   0.97842736 
 1220000     77.50536    1944.9582    0.9786061 
 1225000    77.641865    1962.1713   0.97878489 
 1230000    77.505432    2022.0362   0.97896372 
 1235000    77.560968    2172.5481   0.97914259 
 1240000     76.78801    1981.2781   0.97932151 
 1245000    76.058096    2072.5264   0.97950048 
 1250000    77.139751    2034.5219   0.97967948 
 1255000     76.82873    1976.2895   0.97985853 
 1260000    77.064031    2029.1624   0.98003762 
 1265000    76.085912    2226.6905   0.98021676 
 1270000    76.853042    2133.6506   0.98039594 
 1275000    76.278465    2184.2765   0.98057517 
 1280000     77.34748    2214.9071   0.98075443 
 1285000    76.218151    2350.3131   0.98093375 
 1290000    76.472257    2365.8105    0.9811131 
 1295000    77.310316    2399.2252    0.9812925 
 1300000    75.852488     2136.143   0.98147194 
 1305000    77.262813    2385.6034   0.98165143 
 1310000    78.424173    2110.8654   0.98183096 
 1315000    76.806824    2403.6963   0.98201053 
 1320000    76.584124    2231.2647   0.98219015 
 1325000    76.480876     2305.642   0.98236981 
 1330000    77.009428    2195.2305   0.98254952 
 1335000    76.134762    2165.7758   0.98272927 
 1340000    76.520461    2322.2783   0.98290906 
 1345000    78.166639    2124.3209    0.9830889 
 1350000    78.122531    2608.4137   0.98326878 
 1355000    77.451815    2310.6432    0.9834487 
 1360000    77.226612    2517.4672   0.98362867 
 1365000    77.185514    2372.7531   0.98380868 
 1370000    78.653212    2410.4141   0.98398874 
 1375000    78.090826    2474.1415   0.98416884 
 1380000    77.371742    2547.2125   0.98434899 
 1385000    78.560981    2715.8876   0.98452917 
 1390000    77.819185    2450.4372   0.98470941 
 1395000    78.154505    2453.6884   0.98488968 
 1400000    75.749763    2632.9938      0.98507 
 1405000    78.698064    2646.5663   0.98525037 
 1410000    76.698741    2532.8222   0.98543078 
 1415000    76.713832     2647.012   0.98561123 
 1420000    75.303687    2580.3822   0.98579172 
 1425000    76.644494    2641.1077   0.98597227 
 1430000    77.507492     2754.993   0.98615285 
 1435000    77.694122    2741.5289   0.98633348 
 1440000     77.57099    2605.7642   0.98651415 
 1445000     75.54178    2692.5335   0.98669487 
 1450000    76.586496    2845.9879   0.98687563 
 1455000    77.141454    2706.7547   0.98705644 
 1460000    75.223529      2808.95   0.98723728 
 1465000    78.321677    2755.0126   0.98741818 
 1470000    78.597155    2860.9593   0.98759912 
 1475000    77.085058     2786.132    0.9877801 
 1480000    76.630269    2791.9627   0.98796112 
 1485000    78.698456    2915.2021    0.9881422 
 1490000     76.19607     2884.808   0.98832331 
 1495000    77.263662    3000.0722   0.98850447 
 1500000    76.901268    2843.2922   0.98868567 
 1505000    77.615976    2986.9697   0.98886692 
 1510000    77.481327    2922.9075   0.98904821 
 1515000    77.171823    2972.0019   0.98922955 
 1520000    77.595754    3044.0322   0.98941093 
 1525000    76.419212     3009.327   0.98959235 
 1530000    76.645306    3018.0217   0.98977382 
 1535000    76.530268    3251.5861   0.98995534 
 1540000    78.533884    3026.9526   0.99013689 
 1545000    76.770212    2919.6924    0.9903185 
 1550000    76.455817    3206.8158   0.99050014 
 1555000     76.20056    2850.2079   0.99068184 
 1560000    76.699826    3152.7743   0.99086357 
 1565000    78.008078    3206.4323   0.99104535 
 1570000    78.635891    3040.1208   0.99122718 
 1575000    76.794189    3021.0601   0.99140904 
 1580000    77.990631    3218.0566   0.99159096 
 1585000    77.173052    3251.8166   0.99177292 
 1590000      74.4837    3212.1031   0.99195492 
 1595000    76.894097    3138.6612   0.99213697 
 1600000    77.314984    3320.6866   0.99231906 
 1605000    77.663118    3213.0007   0.99250119 
 1610000    77.592188    3244.5788   0.99268338 
 1615000    77.072827    3339.6849    0.9928656 
 1620000    76.475671    3478.5624   0.99304787 
 1625000    77.521493    3433.2027   0.99323019 
 1630000    76.425674     3189.104   0.99341254 
 1635000    78.345599    3332.3255   0.99359495 
 1640000    76.234634    3255.8877    0.9937774 
 1645000    75.349498    3359.1533   0.99395989 
 1650000    76.869115    3462.9476   0.99414243 
 1655000    76.152459    3267.7567   0.99432501 
 1660000    77.005889    3198.7603   0.99450764 
 1665000    77.768871    3386.1602   0.99469031 
 1670000    76.982778    3399.2439   0.99487303 
 1675000    77.413159    3496.6985   0.99505579 
 1680000     76.94495    3659.7152    0.9952386 
 1685000    76.770225    3458.6339   0.99542145 
 1690000    76.960003    3469.2844   0.99560434 
 1695000    77.658188    3672.0892   0.99578728 
 1700000     76.47136    3272.9506   0.99597027 
 1705000    76.384006    3346.4438    0.9961533 
 1710000    75.236456     3658.498   0.99633638 
 1715000    77.044286    3588.0438    0.9965195 
 1720000     77.56587    3604.0046   0.99670266 
 1725000    76.576853    3609.8914   0.99688587 
 1730000    76.298078    3530.7177   0.99706913 
 1735000    76.157808    3646.3177   0.99725242 
 1740000    77.604864    3646.4319   0.99743577 
 1745000    77.426309    3807.3063   0.99761916 
 1750000       77.217      3682.56   0.99780259 
 1755000    78.373994    3638.6912   0.99798607 
 1760000    77.055249    3272.7131    0.9981696 
 1765000    76.712696    3618.9964   0.99835317 
 1770000    77.417265    3765.7704   0.99853678 
 1775000    76.919478    3691.4507   0.99872044 
 1780000    75.669589    3966.9727   0.99890415 
 1785000    76.356789    3756.4609    0.9990879 
 1790000    77.351767    3899.8866   0.99927169 
 1795000    76.790208     3893.321   0.99945553 
 1800000    77.243415    3795.4665   0.99963942 
 1805000    76.506569    3777.9981   0.99982335 
 1810000    78.800314    3986.8295    1.0000073 
 1815000    75.198452    3785.1829    1.0001913 
 1820000    77.260915     3913.718    1.0003754 
 1825000    76.480655    4028.5555    1.0005595 
 1830000    77.607738    3959.2863    1.0007437 
 1835000    75.392265    3965.7947    1.0009279 
 1840000    77.467999    3922.4472    1.0011121 
 1845000    76.542446    3773.5077    1.0012964 
 1850000    77.383557    3769.2368    1.0014807 
 1855000    76.641355    4061.3593    1.0016651 
 1860000    76.598741    3960.7203    1.0018496 
 1865000    77.377142     3987.184     1.002034 
 1870000    76.578657    3688.0036    1.0022185 
 1875000    77.675284    3671.2741    1.0024031 
 1880000    76.565121    4008.5782    1.0025877 
 1885000    76.237397    4129.8206    1.0027724 
 1890000    75.501543    4009.8962    1.0029571 
 1895000    77.594724    4182.6252    1.0031418 
 1900000    75.420836    4150.1012    1.0033266 
 1905000    77.760781    4196.3846    1.0035114 
 1910000     76.03776    4041.0696    1.0036963 
 1915000     78.61471     4447.104    1.0038812 
 1920000    76.263774    3978.8799    1.0040662 
 1925000    77.950969    4203.1524    1.0042512 
 1930000    77.153943    4224.5896    1.0044363 
 1935000    76.137388    4114.5438    1.0046214 
 1940000    77.108812    3989.0381    1.0048066 
 1945000    76.516687    4049.3287    1.0049918 
 1950000    76.144664     4319.507     1.005177 
 1955000    75.809639    4178.0946    1.0053623 
 1960000    76.823217    4101.5004    1.0055476 
 1965000    77.277306    4042.0493     1.005733 
 1970000    77.449797    4020.2109    1.0059184 
 1975000    76.182497     4249.487    1.0061039 
 1980000    77.715513    3926.0168    1.0062894 
 1985000     76.62404     4190.525     1.006475 
 1990000    75.746407    4132.6915    1.0066606 
 1995000    76.465229    4261.1586    1.0068463 
 2000000    76.685355    4521.3252     1.007032 
 2005000    77.875617    4278.5987    1.0072177 
 2010000    76.680542    4435.3282    1.0074035 
 2015000    78.001553    4201.7073    1.0075893 
 2020000    76.552157    4238.1172    1.0077752 
 2025000    77.634987     4360.039    1.0079611 
 2030000    77.061333    4428.0293    1.0081471 
 2035000    78.018062    4553.2386    1.0083331 
 2040000    76.524824    4258.6575    1.0085192 
 2045000    78.163933    4318.2539    1.0087053 
 2050000    75.557595    4541.6438    1.0088915 
 2055000    76.387097    4456.7327    1.0090777 
 2060000    77.642392    4670.2357    1.0092639 
 2065000    77.920658    4507.6583    1.0094502 
 2070000    76.737458    4273.6542    1.0096366 
 2075000    74.939335    4400.7034    1.0098229 
 2080000    76.421347    4341.0511    1.0100094 
 2085000    76.292825    4588.4963    1.0101959 
 2090000    78.066165    4731.0408    1.0103824 
 2095000    76.543153    4451.4029     1.010569 
 2100000    75.608051     4859.561    1.0107556 
 2105000    76.760436    4491.0894    1.0109422 
 2110000    75.520392    4547.7971    1.0111289 
 2115000    78.403547    4584.8136    1.0113157 
 2120000    78.043317     4395.081    1.0115025 
 2125000    77.187035     4796.576    1.0116893 
 2130000    77.925152    4852.3992    1.0118762 
 2135000    77.102202     4375.974    1.0120632 
 2140000    77.669276    4752.7446    1.0122502 
 2145000    77.012887    4402.4689    1.0124372 
 2150000    76.969324    4543.3532    1.0126243 
 2155000    77.297823    4620.7693    1.0128114 
 2160000    77.350685    4713.3528    1.0129986 
 2165000    75.156945    4587.8743    1.0131858 
 2170000    76.399429     4746.268     1.013373 
 2175000    76.163892    4923.7799    1.0135603 
 2180000    76.612332    4730.0177    1.0137477 
 2185000    77.356296    4684.8262    1.0139351 
 2190000    77.852428    4496.5767    1.0141225 
 2195000    76.937042    4501.9824      1.01431 
 2200000    75.338146    4937.8087    1.0144976 
 2205000    76.802757    4823.2273    1.0146851 
 2210000    75.538893    4876.7547    1.0148728 
 2215000    78.314524    4990.8169    1.0150605 
 2220000    77.050099    4472.0047    1.0152482 
 2225000    78.181601    5030.2554    1.0154359 
 2230000    76.172548    4923.8378    1.0156238 
 2235000    77.245719    4824.7797    1.0158116 
 2240000    78.391939     4860.014    1.0159995 
 2245000    76.399999    4843.5783    1.0161875 
 2250000    77.219855    4788.7149    1.0163755 
 2255000    77.945206    4968.5652    1.0165635 
 2260000    77.505358    4842.0228    1.0167516 
 2265000    76.494507    4911.8361    1.0169398 
 2270000    75.617504    4758.4493     1.017128 
 2275000    76.474848    4893.2574    1.0173162 
 2280000    76.830741    4720.6549    1.0175045 
 2285000    76.930462     5207.558    1.0176928 
 2290000    75.989194    5120.2595    1.0178812 
 2295000    76.723721    5171.1062    1.0180696 
 2300000    76.992552    5005.0005    1.0182581 
 2305000    77.440782    5110.1531    1.0184466 
 2310000    76.820902    4912.0937    1.0186351 
 2315000    78.893737    4823.8528    1.0188237 
 2320000    76.779448    5071.9499    1.0190124 
 2325000    77.105941    4952.5829    1.0192011 
 2330000    75.530244    5099.6704    1.0193898 
 2335000    77.319266    5048.0532    1.0195786 
 2340000    77.164008    5211.1795    1.0197675 
 2345000    78.052661    5026.9828    1.0199563 
 2350000    75.316872    4932.2586    1.0201453 
 2355000    77.257356    5081.5066    1.0203342 
 2360000    76.484338    5163.4448    1.0205233 
 2365000    77.137555    4926.1981    1.0207123 
 2370000    78.089476     5085.842    1.0209015 
 2375000    77.105205    5343.5274    1.0210906 
 2380000    76.512423    5173.0004    1.0212798 
 2385000    76.743235    5164.3557    1.0214691 
 2390000    77.344032    5061.3711    1.0216584 
 2395000    77.239957    5460.9418    1.0218478 
 2400000    76.685402    5244.8968    1.0220372 
 2405000    77.324272    5487.0913    1.0222266 
 2410000    77.553841    5226.9264    1.0224161 
 2415000    77.433144     5022.296    1.0226056 
 2420000    74.904492    5393.4739    1.0227952 
 2425000    75.792413     5664.039    1.0229848 
 2430000    77.338848    5529.5207    1.0231745 
 2435000    76.666686    5404.4096    1.0233643 
 2440000    78.531268    5463.3359     1.023554 
 2445000     75.24837    5681.5798    1.0237438 
 2450000    78.674819    5358.3166    1.0239337 
 2455000    76.545537    5413.9386    1.0241236 
 2460000    77.562517    5446.2372    1.0243136 
 2465000    77.312322     5616.671    1.0245036 
 2470000    77.331226     5557.282    1.0246937 
 2475000    76.461511    5530.9379    1.0248838 
 2480000    77.775666    5597.9488    1.0250739 
 2485000     76.57054    5544.9291    1.0252641 
 2490000    75.183753    5616.2903    1.0254543 
 2495000    77.790032    5551.7226    1.0256446 
 2500000    77.955425    5656.9992     1.025835 
 2505000    76.826231    5432.8497    1.0260254 
 2510000    76.399681    5522.2589    1.0262158 
 2515000    76.826738    5726.8719    1.0264063 
 2520000    76.751663    5451.3746    1.0265968 
 2525000     77.19517    5672.0103    1.0267874 
 2530000    76.866935    5657.2675     1.026978 
 2535000    77.441648    5630.9364    1.0271687 
 2540000    77.412847    5533.3121    1.0273594 
 2545000    76.051363    5714.5921    1.0275501 
 2550000    77.182728    5764.3324    1.0277409 
 2555000     75.82179    5805.9139    1.0279318 
 2560000    76.317281    5598.7655    1.0281227 
 2565000     77.01995    5718.3791    1.0283137 
 2570000    77.169431    5636.7223    1.0285047 
 2575000    78.545778    5659.9965    1.0286957 
 2580000    78.062731    5668.5092    1.0288868 
 2585000    76.024438    5552.6135    1.0290779 
 2590000     75.96173    5884.5032    1.0292691 
 2595000    76.196049    5726.0572    1.0294604 
 2600000    76.880186    5729.6617    1.0296516 
 2605000     77.21063    5593.5287     1.029843 
 2610000    77.058449    5472.2253    1.0300343 
 2615000    78.477509    5508.2861    1.0302258 
 2620000    76.198991    5834.6467    1.0304172 
 2625000    78.525161     5826.903    1.0306088 
 2630000    74.025105    5738.6042    1.0308003 
 2635000    78.180658    5771.1755    1.0309919 
 2640000    76.812985    5735.7188    1.0311836 
 2645000    76.000905    5707.8571    1.0313753 
 2650000    76.975085    5736.3282    1.0315671 
 2655000    75.991147    6041.9243    1.0317589 
 2660000    76.187591    5632.3586    1.0319507 
 2665000      78.7179    5901.9057    1.0321426 
 2670000     77.11653    6083.2006    1.0323346 
 2675000    74.905867    5661.4107    1.0325266 
 2680000    77.665985    5619.1704    1.0327186 
 2685000    75.769692    6020.9358    1.0329107 
 2690000    77.817564    5794.0076    1.0331028 
 2695000    77.116209    5764.2052     1.033295 
 2700000     75.35413    5593.6766    1.0334873 
 2705000    78.188025    5883.7061    1.0336795 
 2710000    77.146933    5876.6609    1.0338719 
 2715000    76.745917    5811.5993    1.0340642 
 2720000    76.409888    5666.8923    1.0342567 
 2725000    77.786015    5694.4241    1.0344491 
 2730000    77.609798    5539.0688    1.0346417 
 2735000    76.804707    5633.9965    1.0348342 
 2740000    75.650307    5755.7964    1.0350268 
 2745000    76.187574    5691.4046    1.0352195 
 2750000      76.2551    5918.3643    1.0354122 
 2755000    77.564998     5857.938     1.035605 
 2760000    76.403303    5658.8683    1.0357978 
 2765000    76.192957    5921.1445    1.0359906 
 2770000    77.024383    5823.6318    1.0361835 
 2775000    78.558676    5934.5975    1.0363765 
 2780000    76.229721    5879.0076    1.0365695 
 2785000    77.651098     5597.753    1.0367625 
 2790000    76.924774    5561.4862    1.0369556 
 2795000    75.880442    5890.8905    1.0371488 
 2800000    76.688726    5811.8153    1.0373419 
 2805000    76.136448    5748.5088    1.0375352 
 2810000    77.894964    5727.0702    1.0377285 
 2815000     76.19403    5830.4729    1.0379218 
 2820000    76.205751    5901.8387    1.0381152 
 2825000    77.522247    5891.1003    1.0383086 
 2830000    76.858496    6053.9989    1.0385021 
 2835000    76.831063     5794.789    1.0386956 
 2840000    77.161534    5767.1921    1.0388892 
 2845000    76.038646    5527.4427    1.0390828 
 2850000    76.943698    5825.7834    1.0392765 
 2855000    78.713686    5970.7621    1.0394702 
 2860000    75.368771    5738.9352     1.039664 
 2865000     77.87779    5759.8102    1.0398578 
 2870000    77.255642     5989.782    1.0400516 
 2875000    76.156455    5652.4912    1.0402456 
 2880000    77.531057    5811.7261    1.0404395 
 2885000    75.937309    5932.4124    1.0406335 
 2890000    76.010918    5924.5569    1.0408276 
 2895000    76.446358    5732.9075    1.0410217 
 2900000    76.484582     5949.351    1.0412158 
 2905000    77.071943     5757.199      1.04141 
 2910000    74.892774    6035.5611    1.0416043 
 2915000    77.150383    5936.9316    1.0417986 
 2920000    76.676296    5894.7691    1.0419929 
 2925000    77.894638    6232.2325    1.0421873 
 2930000    75.623292    6082.2061    1.0423818 
 2935000     76.79384    6167.4644    1.0425763 
 2940000    77.472792     6138.325    1.0427708 
 2945000    76.200845    6078.5609    1.0429654 
 2950000    76.929235    6095.0014      1.04316 
 2955000    77.999132    5960.3176    1.0433547 
 2960000     76.47381    6131.9257    1.0435494 
 2965000     77.91287    6141.1223    1.0437442 
 2970000    76.052107    6017.9496     1.043939 
 2975000    77.307164    5886.1834    1.0441339 
 2980000    76.740186     5997.517    1.0443288 
 2985000     76.79473    6138.0577    1.0445238 
 2990000    78.241087     6063.049    1.0447188 
 2995000    77.706968    6055.8092    1.0449139 
 3000000    75.614637     6294.177     1.045109 
 3005000    76.834913    5822.5493    1.0453042 
 3010000    78.478129    6184.1843    1.0454994 
 3015000    76.907867    6181.3802    1.0456947 
 3020000    77.571191    6174.8754      1.04589 
 3025000    78.615242     6227.835    1.0460854 
 3030000    77.463725    6341.7831    1.0462808 
 3035000    77.680368    6271.5796    1.0464762 
 3040000    75.757966    5842.1455    1.0466717 
 3045000    77.166472    6316.2813    1.0468673 
 3050000    77.237261    5885.3132    1.0470629 
 3055000     76.27681    6027.3813    1.0472586 
 3060000    76.888209    6047.2551    1.0474543 
 3065000    76.312594    6719.0498      1.04765 
 3070000     76.70078     6017.287    1.0478458 
 3075000    76.069786    6130.8882    1.0480417 
 3080000    78.010576    6257.8617    1.0482376 
 3085000    76.425464     6067.679    1.0484335 
 3090000    74.861742    6187.7935    1.0486295 
 3095000    77.586089    6256.3615    1.0488256 
 3100000    77.807332    6204.3373    1.0490217 
 3105000    77.854275    6124.8743    1.0492178 
 3110000     77.01957    6032.4694     1.049414 
 3115000    76.862814    6125.0833    1.0496102 
 3120000     76.75691    6015.3645    1.0498065 
 3125000    77.992981    6082.1865    1.0500029 
 3130000    77.253624    6228.5962    1.0501993 
 3135000    77.695263     6308.675    1.0503957 
 3140000    77.096691    6326.7418    1.0505922 
 3145000    75.946763    6333.6901    1.0507887 
 3150000    76.082796    6233.2617    1.0509853 
 3155000     75.55622    6519.0766    1.0511819 
 3160000    76.123961    5976.6452    1.0513786 
 3165000    74.768438    6168.2284    1.0515754 
 3170000    77.260738    6300.7209    1.0517721 
 3175000    77.439362    6597.3913     1.051969 
 3180000     78.03751     6186.392    1.0521658 
 3185000    77.293801    6222.2805    1.0523628 
 3190000    77.226031    6320.7696    1.0525598 
 3195000    77.341625    6059.7409    1.0527568 
 3200000     76.83561    6228.9679    1.0529539 
 3205000    77.165984    6394.1969     1.053151 
 3210000    75.990626     6525.128    1.0533482 
 3215000    75.878218    6622.3752    1.0535454 
 3220000    78.235637    6380.8454    1.0537427 
 3225000    76.553406    6300.4899      1.05394 
 3230000    76.317842    6453.4118    1.0541373 
 3235000    76.564377    6329.2855    1.0543348 
 3240000      75.3204    6202.6797    1.0545322 
 3245000    77.012029    6452.1129    1.0547298 
 3250000    78.107442    6518.2812    1.0549273 
 3255000    76.623159    6424.2408    1.0551249 
 3260000    77.035058    6370.6301    1.0553226 
 3265000    77.752184    6313.8664    1.0555203 
 3270000    75.711296    6336.3058    1.0557181 
 3275000    76.875558    6391.7534    1.0559159 
 3280000    77.511438     6505.728    1.0561138 
 3285000    75.550513    6441.7482    1.0563117 
 3290000    77.825199    6429.6991    1.0565096 
 3295000    75.671058    6279.5137    1.0567077 
 3300000    78.250621    6309.1292    1.0569057 
 3305000    78.521416     6439.853    1.0571038 
 3310000    77.468384    6491.3204     1.057302 
 3315000    79.140042    6572.1139    1.0575002 
 3320000    77.532514    6482.5306    1.0576985 
 3325000    76.427954    6413.8455    1.0578968 
 3330000    76.821933    6391.0848    1.0580951 
 3335000    74.189771    6344.2012    1.0582935 
 3340000    77.543191    6699.3681     1.058492 
 3345000    76.268935    6940.8514    1.0586905 
 3350000    76.686308    6437.7415    1.0588891 
 3355000    77.625211    6520.7987    1.0590877 
 3360000    78.147827    6329.0011    1.0592863 
 3365000    76.354474    6360.9306     1.059485 
 3370000    77.587678    6797.8675    1.0596838 
 3375000    76.589293    6554.0258    1.0598826 
 3380000    77.038749    6484.4184    1.0600815 
 3385000    77.040304    6567.4726    1.0602804 
 3390000    76.602733    6508.3831    1.0604793 
 3395000    77.922749    6720.2815    1.0606783 
 3400000    77.312905    6512.0601    1.0608774 
 3405000    77.188819    6320.8697    1.0610765 
 3410000    76.343484    6757.8978    1.0612757 
 3415000    76.268701    6387.6506    1.0614749 
 3420000    77.215326    6537.6666    1.0616741 
 3425000    76.902728    6351.6638    1.0618734 
 3430000    77.329005    6508.6542    1.0620728 
 3435000     76.24901    6733.6879    1.0622722 
 3440000    78.402591     6594.286    1.0624716 
 3445000     76.22348    6718.5344    1.0626711 
 3450000    77.067784     6599.236    1.0628707 
 3455000    76.703279     6470.672    1.0630703 
 3460000    75.875469    6796.4489    1.0632699 
 3465000    77.892497    6901.1048    1.0634697 
 3470000    78.273212    6655.7094    1.0636694 
 3475000    77.020289    6714.9819    1.0638692 
 3480000    76.871287    6634.9424    1.0640691 
 3485000    77.269059    6613.9079     1.064269 
 3490000    78.131485    6859.6171    1.0644689 
 3495000    76.296287    6726.5707    1.0646689 
 3500000    78.089368     6862.268     1.064869 
 3505000    76.298107    6622.6787    1.0650691 
 3510000    76.126158    6678.1601    1.0652692 
 3515000    76.674674     6986.461    1.0654694 
 3520000    78.053493    6743.4341    1.0656697 
 3525000    77.339765    6608.0226      1.06587 
 3530000    76.026105      6650.28    1.0660704 
 3535000    76.330468     6717.796    1.0662708 
 3540000    75.555705    6580.4635    1.0664712 
 3545000    77.090372    6620.5827    1.0666717 
 3550000    75.826812    6399.9653    1.0668723 
 3555000    76.093448    6305.9452    1.0670729 
 3560000    76.998535    6298.7206    1.0672736 
 3565000    77.714174    6732.9637    1.0674743 
 3570000    75.616978    6671.8747     1.067675 
 3575000    77.713441    6648.7818    1.0678758 
 3580000    77.577886    6516.3858    1.0680767 
 3585000    76.560876     6816.131    1.0682776 
 3590000    76.599459    6884.9948    1.0684786 
 3595000     77.19598    6463.9148    1.0686796 
 3600000    77.436324    6581.8478    1.0688806 
 3605000    77.454502    6634.4895    1.0690817 
 3610000    76.427578    6323.2455    1.0692829 
 3615000    76.047226    6519.2644    1.0694841 
 3620000    76.242904    6514.9141    1.0696854 
 3625000      75.2061    6437.9789    1.0698867 
 3630000    76.547432    6392.4788     1.070088 
 3635000    76.736227    6485.0091    1.0702895 
 3640000     77.02159    6441.5972    1.0704909 
 3645000    76.674809    6488.1015    1.0706924 
 3650000    77.239714    6461.7789     1.070894 
 3655000    79.144692    6285.2237    1.0710956 
 3660000    76.391778    6063.2871    1.0712973 
 3665000    76.853763    6386.7993     1.071499 
 3670000    76.991609     6421.321    1.0717008 
 3675000     75.17341    6174.8546    1.0719026 
 3680000    77.349394     6264.327    1.0721045 
 3685000    78.156113    6505.4778    1.0723064 
 3690000     77.88924    6313.8987    1.0725083 
 3695000    77.120592    6339.4053    1.0727104 
 3700000    77.680829    6359.5608    1.0729124 
 3705000    75.294907    6236.8746    1.0731146 
 3710000    77.059082    6673.7685    1.0733167 
 3715000    77.438485     6256.786     1.073519 
 3720000    77.064103    6433.3122    1.0737212 
 3725000    76.385187    6586.5908    1.0739236 
 3730000    76.104556    6359.8054    1.0741259 
 3735000    76.165143    6453.3783    1.0743284 
 3740000    76.538027    6688.6081    1.0745308 
 3745000     76.60849    6305.3532    1.0747334 
 3750000    76.745203    6751.0748     1.074936 
 3755000    76.527558    6803.5971    1.0751386 
 3760000     77.14185    6661.0229    1.0753413 
 3765000     77.05585     6543.495     1.075544 
 3770000    75.499625     6714.101    1.0757468 
 3775000    76.752059    6317.2948    1.0759496 
 3780000    76.736462    6509.6943    1.0761525 
 3785000    76.658383    6656.2704    1.0763554 
 3790000    76.923924    6634.2553    1.0765584 
 3795000    76.324425     6493.121    1.0767615 
 3800000    77.563893    6447.5598    1.0769646 
 3805000    76.856162    6155.7521    1.0771677 
 3810000    77.203394    6636.1581    1.0773709 
 3815000    76.441345    6480.6097    1.0775741 
 3820000    77.472232    6687.2195    1.0777774 
 3825000    76.762241    6433.2451    1.0779808 
 3830000    78.835982     6614.939    1.0781842 
 3835000    76.732535     6428.872    1.0783876 
 3840000    78.263955    6629.4482    1.0785911 
 3845000    77.339845    6760.5189    1.0787947 
 3850000     75.75961    6642.1809    1.0789983 
 3855000    77.764428    6388.7664    1.0792019 
 3860000    78.083179    6604.1455    1.0794056 
 3865000    76.405485    6566.5078    1.0796094 
 3870000    76.983814    6658.5692    1.0798132 
 3875000    76.412221    6630.7199    1.0800171 
 3880000     76.43988    6660.8683     1.080221 
 3885000    76.892721    6547.8422    1.0804249 
 3890000    77.144736    6867.9548    1.0806289 
 3895000     76.39143    6710.7133     1.080833 
 3900000    77.889688     6836.346    1.0810371 
 3905000     76.76251    6846.5965    1.0812413 
 3910000    77.437148    6638.8269    1.0814455 
 3915000    77.945524    7069.9925    1.0816498 
 3920000    76.959113    6845.5299    1.0818541 
 3925000    77.135081    6803.6926    1.0820585 
 3930000    76.695673    6707.4794    1.0822629 
 3935000    77.678587    6896.5305    1.0824674 
 3940000    76.887254    6644.1333    1.0826719 
 3945000    77.271214    6744.0346    1.0828765 
 3950000    78.524233    6903.1876    1.0830811 
 3955000    76.521612    6724.2036    1.0832858 
 3960000    76.626738    6666.0409    1.0834905 
 3965000    77.389266    6613.7574    1.0836953 
 3970000    76.836148     6949.761    1.0839001 
 3975000    77.080524    7022.7678     1.084105 
 3980000    76.323846    7130.3315    1.0843099 
 3985000     77.12385    6936.3725    1.0845149 
 3990000    76.867983    6797.1117      1.08472 
 3995000    76.808558    6935.8608    1.0849251 
 4000000    75.764835    6734.7871    1.0851302 
 4005000    77.154151    6974.7159    1.0853354 
 4010000    77.781173    6955.2521    1.0855407 
 4015000    77.195745    7190.8308     1.085746 
 4020000    76.743952    7069.9832    1.0859513 
 4025000    77.235156    7267.2179    1.0861567 
 4030000    76.531615    7175.4352    1.0863622 
 4035000    77.107088    7305.9939    1.0865677 
 4040000    76.361994     7101.997    1.0867733 
 4045000    77.794308    7309.5665    1.0869789 
 4050000    77.302296    7044.5252    1.0871845 
 4055000    77.662262    6966.2789    1.0873902 
 4060000     77.27476    7297.2582     1.087596 
 4065000    78.625079    7022.8814    1.0878018 
 4070000     75.46685    7178.9039    1.0880077 
 4075000    77.256254    7147.4059    1.0882136 
 4080000    77.482467    7095.0252    1.0884196 
 4085000     77.98756    7072.6718    1.0886256 
 4090000    76.704486     7218.881    1.0888317 
 4095000    77.038822    7124.1643    1.0890378 
 4100000    76.645029    7236.6638     1.089244 
 4105000    77.589065    7170.8652    1.0894503 
 4110000     78.05694    7116.3917    1.0896565 
 4115000    77.844698     7099.468    1.0898629 
 4120000    76.471847    7295.8732    1.0900693 
 4125000     77.48362    6908.1776    1.0902757 
 4130000    77.104502     6937.415    1.0904822 
 4135000    77.850961    7041.8166    1.0906888 
 4140000    77.167056    6974.1403    1.0908954 
 4145000    76.573694    7130.2296     1.091102 
 4150000    76.430779    6899.0764    1.0913087 
 4155000    76.659219    7016.6653    1.0915155 
 4160000    77.336263    7013.2101    1.0917223 
 4165000    77.132712    7152.3107    1.0919291 
 4170000    75.176437    7164.6787    1.0921361 
 4175000    77.137943    7259.4245     1.092343 
 4180000    75.054386    7033.8149      1.09255 
 4185000    77.759515    7147.2413    1.0927571 
 4190000    76.536327     7381.403    1.0929642 
 4195000     76.58811    7104.6501    1.0931714 
 4200000     78.14365    7164.4906    1.0933786 
 4205000    76.702846    7027.6827    1.0935859 
 4210000    77.024636    7369.9472    1.0937933 
 4215000    77.425935    6942.8708    1.0940006 
 4220000    76.808944    6947.6309    1.0942081 
 4225000    77.630027    7129.2265    1.0944156 
 4230000    78.651755    7301.4614    1.0946231 
 4235000    77.883661    7050.2273    1.0948307 
 4240000    78.708535    7152.6936    1.0950383 
 4245000    76.372244    7169.2743     1.095246 
 4250000    77.460846     7113.812    1.0954538 
 4255000    78.296225    7126.6529    1.0956616 
 4260000    76.856738    7186.6281    1.0958695 
 4265000    76.941502    6962.3701    1.0960774 
 4270000    76.542871    7217.9117    1.0962853 
 4275000    77.763682    7333.8906    1.0964934 
 4280000    77.181894    7123.1836    1.0967014 
 4285000     77.83895    7047.2349    1.0969095 
 4290000    77.595664    7202.7361    1.0971177 
 4295000    76.207222    7142.5676    1.0973259 
 4300000      77.1235     7318.251    1.0975342 
 4305000    76.769887    7032.1846    1.0977425 
 4310000    76.804182    6917.3611    1.0979509 
 4315000    77.140304    7224.8942    1.0981594 
 4320000    76.524358    7120.5882    1.0983679 
 4325000    76.664446    7132.6883    1.0985764 
 4330000    77.037017    7344.9013     1.098785 
 4335000    75.936629    7339.2553    1.0989936 
 4340000    76.923121    6891.9192    1.0992023 
 4345000    77.553408    7355.2571    1.0994111 
 4350000    76.621945    7161.3029    1.0996199 
 4355000    76.985949    7283.6074    1.0998288 
 4360000    76.464648    6940.9223    1.1000377 
 4365000    76.631002    7092.7048    1.1002466 
 4370000    76.383043    7292.6584    1.1004557 
 4375000    76.467297    7009.6322    1.1006647 
 4380000    77.744045    7119.5026    1.1008738 
 4385000    76.549169    7302.5581     1.101083 
 4390000    77.373503    7232.7676    1.1012923 
 4395000    76.650449     7169.523    1.1015015 
 4400000    75.737326    7068.6316    1.1017109 
 4405000    78.213528    7184.9702    1.1019203 
 4410000    77.870323    7071.9129    1.1021297 
 4415000    78.357925    6958.8587    1.1023392 
 4420000    76.782849    7253.3418    1.1025487 
 4425000    77.211078    7215.5431    1.1027583 
 4430000    76.346317    7343.6436     1.102968 
 4435000    77.246069    7327.8847    1.1031777 
 4440000    77.950135    7258.6732    1.1033875 
 4445000    76.227471    7275.6465    1.1035973 
 4450000    76.258672    7522.1134    1.1038072 
 4455000    76.394492    7376.0192    1.1040171 
 4460000    77.412817    7840.2765     1.104227 
 4465000    77.021914     7427.283    1.1044371 
 4470000    76.805508    7594.8916    1.1046472 
 4475000    78.937673    7564.1979    1.1048573 
 4480000    76.402052    7643.8011    1.1050675 
 4485000    76.746398     7668.474    1.1052777 
 4490000    77.163195    7497.7501     1.105488 
 4495000    76.232557    7484.6949    1.1056984 
 4500000    78.298029    7652.1656    1.1059088 
 4505000    76.326048    7225.0804    1.1061192 
 4510000     78.68061    7430.7856    1.1063297 
 4515000    76.160026    7450.9061    1.1065403 
 4520000    75.693236    7216.8724    1.1067509 
 4525000    76.152669    7729.6179    1.1069616 
 4530000    76.828258    7461.9908    1.1071723 
 4535000    77.356552    7387.3442     1.107383 
 4540000    76.793151    7521.1479    1.1075939 
 4545000    76.598241    7346.1411    1.1078048 
 4550000    76.575897    7422.8461    1.1080157 
 4555000    77.476809    7744.1798    1.1082267 
 4560000    78.294209    7443.8651    1.1084377 
 4565000    76.810534    7234.5712    1.1086488 
 4570000    78.029691    7291.9563      1.10886 
 4575000    76.704419    7702.6579    1.1090712 
 4580000    77.137873    7155.5175    1.1092824 
 4585000    76.314447    7474.0996    1.1094937 
 4590000    77.409952    7952.3304    1.1097051 
 4595000    75.739724    7472.5011    1.1099165 
 4600000    77.774293    7495.5041     1.110128 
 4605000     76.75342    7561.3089    1.1103395 
 4610000    77.872845    7762.1823    1.1105511 
 4615000    76.217679    7346.3968    1.1107627 
 4620000    76.887044     7501.114    1.1109744 
 4625000    77.939991    7316.0047    1.1111861 
 4630000     76.72824    7575.7606    1.1113979 
 4635000    77.918515    7829.3286    1.1116098 
 4640000    76.072292    7530.8489    1.1118217 
 4645000    77.360821    7485.9456    1.1120336 
 4650000    76.528176    7437.0893    1.1122456 
 4655000    77.299214    7817.9477    1.1124577 
 4660000    78.080299     7414.632    1.1126698 
 4665000     76.54643    7562.3627     1.112882 
 4670000    76.718247    7228.0116    1.1130942 
 4675000     77.09763     7247.998    1.1133065 
 4680000    77.003935    7544.2215    1.1135188 
 4685000     77.39754    7143.7119    1.1137312 
 4690000    77.618584    7253.8012    1.1139437 
 4695000    76.411881    7140.8785    1.1141562 
 4700000    78.299204    7457.8313    1.1143687 
 4705000    77.587897      7204.05    1.1145813 
 4710000    76.253945    7470.5645     1.114794 
 4715000    76.461557    7419.3482    1.1150067 
 4720000    76.879065    7422.2172    1.1152194 
 4725000    78.155639    7394.3015    1.1154323 
 4730000    76.646069    7591.4123    1.1156451 
 4735000    76.615044    7396.4066    1.1158581 
 4740000    77.147933    7463.1019     1.116071 
 4745000    76.503727    7326.7503    1.1162841 
 4750000    76.258426     7388.635    1.1164972 
 4755000     77.07054    7351.2648    1.1167103 
 4760000    77.157843      7437.62    1.1169235 
 4765000    76.892888    7314.4783    1.1171368 
 4770000     77.88995     7422.736    1.1173501 
 4775000    77.137464    7355.4634    1.1175634 
 4780000    76.814517    7340.8131    1.1177768 
 4785000    76.261006    7204.3621    1.1179903 
 4790000     76.39645    7244.6229    1.1182038 
 4795000     78.67414    7282.6154    1.1184174 
 4800000    76.386927    7616.0079    1.1186311 
 4805000    76.058566    7416.9915    1.1188447 
 4810000    76.803876    7143.8819    1.1190585 
 4815000    76.380615    7273.7214    1.1192723 
 4820000    77.291733    7486.4075    1.1194861 
 4825000    76.594451    7182.5398       1.1197 
 4830000    75.824135    7534.4985     1.119914 
 4835000    78.083017    7196.9851     1.120128 
 4840000    75.837699    7507.9596    1.1203421 
 4845000    78.027447    7359.2107    1.1205562 
 4850000    77.590053    7374.1819    1.1207704 
 4855000    77.103746    7328.5812    1.1209846 
 4860000    78.185516    7601.5866    1.1211989 
 4865000    76.160934    7428.3168    1.1214132 
 4870000    75.896235    7262.2842    1.1216276 
 4875000    77.155152    7414.8599    1.1218421 
 4880000    75.964877    7403.7388    1.1220566 
 4885000    78.876485    7570.4471    1.1222712 
 4890000     78.26159     7270.573    1.1224858 
 4895000     77.62405    7385.5694    1.1227004 
 4900000    76.435658    7330.5492    1.1229152 
 4905000    79.446655    7463.9544    1.1231299 
 4910000    75.325952    7310.9097    1.1233448 
 4915000     77.67789    7424.7105    1.1235597 
 4920000     75.73325    7136.6867    1.1237746 
 4925000    78.217014    7282.5799    1.1239896 
 4930000    77.179586    7306.5495    1.1242047 
 4935000    75.669338    7375.6272    1.1244198 
 4940000    77.209426    7182.0003    1.1246349 
 4945000    77.213994    7465.7518    1.1248502 
 4950000    76.788387     7220.246    1.1250654 
 4955000    76.816757    7470.4475    1.1252808 
 4960000    77.010512     7529.627    1.1254961 
 4965000    77.056364    7448.5367    1.1257116 
 4970000    76.096571    7304.3934    1.1259271 
 4975000    77.765727    7276.5263    1.1261426 
 4980000    76.601318    7363.7457    1.1263582 
 4985000    77.148465    7206.3877    1.1265739 
 4990000    75.421509    7371.8206    1.1267896 
 4995000    75.807641    7285.0446    1.1270054 
 5000000    77.580752    7269.8497    1.1272212 
 5005000    76.545371    7528.4372    1.1274371 
 5010000    77.585918    7468.9102     1.127653 
 5015000    76.254217    7278.7851     1.127869 
 5020000    76.016017     7307.256     1.128085 
 5025000    77.471296    7563.4119    1.1283011 
 5030000     76.32562    7540.4565    1.1285173 
 5035000    76.154663    7373.8024    1.1287335 
 5040000    77.008446    7346.7446    1.1289498 
 5045000     76.55378    7367.0422    1.1291661 
 5050000    76.201605    7505.8563    1.1293825 
 5055000    77.395551    7344.6711    1.1295989 
 5060000    77.413747    7181.6151    1.1298154 
 5065000    76.377852    7494.8722    1.1300319 
 5070000    75.794787    7553.8962    1.1302485 
 5075000    77.633064    7367.4122    1.1304652 
 5080000    76.686717    7270.9463    1.1306819 
 5085000    76.664282    7425.6363    1.1308986 
 5090000    76.514089    7561.5324    1.1311154 
 5095000    77.063906    7304.6192    1.1313323 
 5100000    77.626549    7040.9772    1.1315493 
 5105000    77.621699    7384.7701    1.1317662 
 5110000     75.38895    7590.6619    1.1319833 
 5115000    77.106127    7211.3816    1.1322004 
 5120000    77.186502    7200.1643    1.1324175 
 5125000    76.198622    7053.6465    1.1326347 
 5130000    76.676078    7274.7426     1.132852 
 5135000    76.479581    7129.4299    1.1330693 
 5140000    77.671051     7726.594    1.1332867 
 5145000    76.807289    7332.4167    1.1335041 
 5150000    78.671335    7245.9276    1.1337216 
 5155000    76.788611    7560.0254    1.1339391 
 5160000     76.29688    7574.0917    1.1341567 
 5165000    77.010091    7455.9428    1.1343744 
 5170000    76.221121    7393.5126    1.1345921 
 5175000    76.813292    7428.5716    1.1348098 
 5180000    76.359433    7515.3628    1.1350277 
 5185000    78.490746     7381.432    1.1352455 
 5190000    79.213592    7360.5791    1.1354635 
 5195000     76.70785    7395.9729    1.1356815 
 5200000    78.816888    7323.5541    1.1358995 
 5205000     76.17719    7286.7697    1.1361176 
 5210000    77.129749    7625.8737    1.1363357 
 5215000    77.654883    7569.5483     1.136554 
 5220000    74.794451    7707.5915    1.1367722 
 5225000    77.969134     7641.675    1.1369905 
 5230000     76.43311    7545.8581    1.1372089 
 5235000    76.781908    7680.9082    1.1374274 
 5240000    77.359285    7765.4001    1.1376458 
 5245000    76.111002    7386.7556    1.1378644 
 5250000    77.377112    7911.6741     1.138083 
 5255000    78.571132    7619.4873    1.1383016 
 5260000    76.896443    7850.7624    1.1385204 
 5265000    76.318895    7394.3123    1.1387391 
 5270000    77.430455     7328.275    1.1389579 
 5275000     75.95784    7700.6139    1.1391768 
 5280000    77.510678    7547.4706    1.1393958 
 5285000    78.196603    7566.5189    1.1396148 
 5290000    77.105181    7547.7708    1.1398338 
 5295000    78.391695    7866.8365    1.1400529 
 5300000    77.212668    7969.1642    1.1402721 
 5305000    75.053396    7660.4799    1.1404913 
 5310000    77.170896    7681.9148    1.1407106 
 5315000    76.903987    7636.5588    1.1409299 
 5320000    77.118052    7636.9937    1.1411493 
 5325000    77.147238    7714.4538    1.1413687 
 5330000    77.426609    7518.3733    1.1415882 
 5335000    76.271581    7735.6743    1.1418078 
 5340000    77.683697    7933.3843    1.1420274 
 5345000    77.705637    7670.4049    1.1422471 
 5350000    77.539872    7625.3467    1.1424668 
 5355000    77.931049    7466.7473    1.1426866 
 5360000    76.118218    7640.2534    1.1429064 
 5365000    76.642561    7772.2589    1.1431263 
 5370000    77.378917    7643.6834    1.1433462 
 5375000    77.590631    7525.3106    1.1435662 
 5380000    77.398083    7351.0807    1.1437863 
 5385000    78.294141    7645.9988    1.1440064 
 5390000    77.091102    7876.8747    1.1442266 
 5395000    77.149995     7945.708    1.1444468 
 5400000    76.577554    7964.3074    1.1446671 
 5405000     77.29359    7772.9562    1.1448875 
 5410000    77.437086    7638.9652    1.1451079 
 5415000    77.933232    7912.4677    1.1453283 
 5420000    76.889903    7563.0949    1.1455488 
 5425000    77.342966    7732.3242    1.1457694 
 5430000    76.133948    7928.0449      1.14599 
 5435000     76.77379    7696.7217    1.1462107 
 5440000    76.652287    7928.5785    1.1464315 
 5445000    76.940142    7853.6446    1.1466523 
 5450000    78.549449    8040.0991    1.1468731 
 5455000    76.519837    7741.9392     1.147094 
 5460000    77.903691    7848.9309     1.147315 
 5465000     77.17128    7695.6431     1.147536 
 5470000     77.63022      7966.47    1.1477571 
 5475000    77.988463     7966.472    1.1479782 
 5480000    76.531968    7882.3848    1.1481994 
 5485000    78.223188    8009.6255    1.1484207 
 5490000    76.555055    7703.8268     1.148642 
 5495000    76.338644    8214.7224    1.1488634 
 5500000    76.394351    7942.8423    1.1490848 
 5505000     77.51534    8090.5398    1.1493063 
 5510000    78.403477    7858.0867    1.1495278 
 5515000    77.087362    7930.2504    1.1497494 
 5520000    76.993356    7942.8802     1.149971 
 5525000    76.854386    7945.2333    1.1501928 
 5530000    75.941304     8066.338    1.1504145 
 5535000    76.895008    7879.2811    1.1506363 
 5540000    78.691879    8000.9039    1.1508582 
 5545000     77.75458    7943.5578    1.1510802 
 5550000    77.303045    8230.2371    1.1513021 
 5555000    77.624827    7743.4858    1.1515242 
 5560000    76.094982     7910.592    1.1517463 
 5565000    76.212241    7858.3902    1.1519685 
 5570000    78.360799    8096.4262    1.1521907 
 5575000    76.163233    8051.8269     1.152413 
 5580000    76.945086    7850.4566    1.1526353 
 5585000    76.649118    7762.3568    1.1528577 
 5590000     75.41077     8158.489    1.1530801 
 5595000    77.565576    8149.5812    1.1533026 
 5600000    75.957209    8016.0765    1.1535252 
 5605000    76.710542    8168.0724    1.1537478 
 5610000    77.786636    8144.7674    1.1539705 
 5615000    76.202542    8028.9851    1.1541932 
 5620000    77.717453    8057.6461     1.154416 
 5625000     77.64002    8127.3114    1.1546389 
 5630000    77.612077    7855.6477    1.1548618 
 5635000     77.20077    8323.5407    1.1550848 
 5640000     75.74089    8382.8712    1.1553078 
 5645000    77.069445    7921.7722    1.1555309 
 5650000    76.996765    8305.3153     1.155754 
 5655000    76.658981    8379.0532    1.1559772 
 5660000    76.003982    8316.3945    1.1562005 
 5665000    77.824254    8295.2248    1.1564238 
 5670000    76.904579    8386.2914    1.1566471 
 5675000    75.562633    8209.0331    1.1568706 
 5680000     76.80359    8132.8439     1.157094 
 5685000     77.94345    8301.0775    1.1573176 
 5690000    76.710462    7997.5111    1.1575412 
 5695000    76.956915    8091.7711    1.1577648 
 5700000     76.23256    8257.5993    1.1579885 
 5705000    75.330964    8233.3245    1.1582123 
 5710000    75.871223    8125.2925    1.1584361 
 5715000    76.544969    8059.7836      1.15866 
 5720000    76.824317    8314.0788     1.158884 
 5725000    75.464596    8289.2759     1.159108 
 5730000    76.946378    8339.8406     1.159332 
 5735000    77.005294    8259.0483    1.1595562 
 5740000    76.088771    8628.1798    1.1597803 
 5745000    76.643475    8337.6089    1.1600046 
 5750000    78.074489    8724.2676    1.1602289 
 5755000    76.945017    8480.3164    1.1604532 
 5760000    77.153477    8678.0274    1.1606776 
 5765000    76.029545    8832.0074    1.1609021 
 5770000     78.18165    8554.2146    1.1611266 
 5775000    75.936193    8636.6883    1.1613512 
 5780000     76.83078    8780.8909    1.1615758 
 5785000    75.569938    8537.7409    1.1618005 
 5790000    76.622875    8423.7753    1.1620253 
 5795000    76.568103    8445.2059    1.1622501 
 5800000    76.890359    8791.2507    1.1624749 
 5805000    78.744703    8698.1566    1.1626999 
 5810000    77.644988    8763.1134    1.1629249 
 5815000    76.708982    8758.0425    1.1631499 
 5820000    77.975741    8521.7758     1.163375 
 5825000    76.843054    8937.3016    1.1636002 
 5830000    77.852508    8910.5455    1.1638254 
 5835000    77.320498    9233.1985    1.1640506 
 5840000    76.585829    8836.8593     1.164276 
 5845000    77.441569    8783.9788    1.1645014 
 5850000    76.457868    8962.1088    1.1647268 
 5855000    77.155208    8907.6071    1.1649523 
 5860000    76.292051    8887.6959    1.1651779 
 5865000    76.494915    8722.9805    1.1654035 
 5870000     78.05728    8847.4521    1.1656292 
 5875000    76.613457    8763.2167     1.165855 
 5880000    78.157337     8684.366    1.1660808 
 5885000    77.851874    8476.9125    1.1663066 
 5890000     77.41613    8757.2116    1.1665325 
 5895000     76.38415    8958.8249    1.1667585 
 5900000    75.380142    8768.3946    1.1669845 
 5905000    77.916528     8617.305    1.1672106 
 5910000     77.06541    8962.5678    1.1674368 
 5915000    76.627066    8826.9408     1.167663 
 5920000     76.26708    8897.0766    1.1678893 
 5925000    77.374069    8628.2411    1.1681156 
 5930000    77.866446    9027.6848     1.168342 
 5935000    75.743368    9123.9465    1.1685684 
 5940000    77.253875    8665.2157    1.1687949 
 5945000     75.79598    8730.0579    1.1690215 
 5950000    76.105873    8725.6735    1.1692481 
 5955000    78.159054    8721.7694    1.1694748 
 5960000    76.222999    8667.7872    1.1697015 
 5965000    77.714311    8647.1219    1.1699283 
 5970000    76.940701    8674.9078    1.1701551 
 5975000    76.318569    8686.9934    1.1703821 
 5980000    76.732291     8634.346     1.170609 
 5985000    78.633281    8528.0919     1.170836 
 5990000    76.795436    8676.1624    1.1710631 
 5995000    77.439912    8899.0255    1.1712903 
 6000000    76.618703    8618.7814    1.1715175 
 6005000    76.901249     8652.687    1.1717447 
 6010000    76.990605    8817.6459    1.1719721 
 6015000    76.175175     8699.521    1.1721995 
 6020000    77.631375    8681.8842    1.1724269 
 6025000    76.697636     8512.238    1.1726544 
 6030000    76.746239    8534.6336    1.1728819 
 6035000    77.500385    8683.1122    1.1731096 
 6040000     77.26064    8644.8785    1.1733372 
 6045000    76.903229     8537.558     1.173565 
 6050000    76.495698    8511.2717    1.1737928 
 6055000    76.589868    8641.9172    1.1740206 
 6060000     77.10649    8645.6364    1.1742485 
 6065000    77.105875    8650.5731    1.1744765 
 6070000    76.082766    8998.6439    1.1747045 
 6075000     77.87416    8810.4097    1.1749326 
 6080000    75.861927    8566.0817    1.1751608 
 6085000    77.486446    8898.8632     1.175389 
 6090000    76.883752    8911.1329    1.1756172 
 6095000    78.232549    8498.9666    1.1758456 
 6100000    77.358888    8773.9071    1.1760739 
 6105000     76.57117    8819.6126    1.1763024 
 6110000    78.819014    8406.6623    1.1765309 
 6115000    77.882475    8824.2318    1.1767595 
 6120000    76.601648    8701.3499    1.1769881 
 6125000    76.370571    8643.6883    1.1772168 
 6130000    77.572094     8697.091    1.1774455 
 6135000    77.504726    8742.8651    1.1776743 
 6140000    75.519207    8826.8159    1.1779031 
 6145000     76.89587    8901.1006    1.1781321 
 6150000    76.519234    8934.0403     1.178361 
 6155000    77.040816    9028.9481    1.1785901 
 6160000    77.351087    9329.9573    1.1788192 
 6165000    77.173836    9003.8878    1.1790483 
 6170000     76.78744    9182.0428    1.1792775 
 6175000    76.970145    9156.2522    1.1795068 
 6180000    79.213985    8627.4084    1.1797361 
 6185000    77.224829    8778.6508    1.1799655 
 6190000    77.062053    8903.6706     1.180195 
 6195000    76.335906    8957.2716    1.1804245 
 6200000    76.380941    8725.4462    1.1806541 
 6205000    76.684018     8960.822    1.1808837 
 6210000    77.564201    8639.4039    1.1811134 
 6215000    76.239504    8659.7905    1.1813431 
 6220000    77.550395     8627.681    1.1815729 
 6225000    77.206504    8994.5962    1.1818028 
 6230000    77.418376     8994.725    1.1820327 
 6235000    75.660133    9058.8442    1.1822627 
 6240000    78.027795     8733.167    1.1824928 
 6245000    76.380395    8856.3507    1.1827229 
 6250000    77.032193    9104.3146     1.182953 
 6255000     77.65848    8881.6127    1.1831833 
 6260000     76.33628    9005.2647    1.1834136 
 6265000    77.798901    9067.4959    1.1836439 
 6270000    76.311595    8879.5578    1.1838743 
 6275000    77.582726    8727.8183    1.1841048 
 6280000    77.077254    9090.9655    1.1843353 
 6285000    76.584948    8782.2975    1.1845659 
 6290000    78.237862    8892.5278    1.1847965 
 6295000    75.841439    9096.9369    1.1850272 
 6300000    76.146048     8853.805     1.185258 
 6305000    78.298604    8916.5662    1.1854888 
 6310000    75.247211    8705.7341    1.1857197 
 6315000    77.160207    9010.6593    1.1859506 
 6320000    76.025664    9182.6592    1.1861817 
 6325000    76.808023    8882.5455    1.1864127 
 6330000    77.474144    8922.7654    1.1866438 
 6335000    77.130696    9054.9271     1.186875 
 6340000     77.42343    8748.2239    1.1871063 
 6345000    77.196288    8957.7801    1.1873376 
 6350000    76.630022    9110.4115    1.1875689 
 6355000    79.047991    8995.1791    1.1878004 
 6360000    76.805056    9178.0178    1.1880318 
 6365000    78.114535    9027.5631    1.1882634 
 6370000    75.963862    8976.2642     1.188495 
 6375000    77.313244    9131.5927    1.1887267 
 6380000    76.407748    9253.8491    1.1889584 
 6385000    76.644899     9034.299    1.1891902 
 6390000    76.430124    9518.9599     1.189422 
 6395000    77.221196    9366.9226    1.1896539 
 6400000     76.16487    9222.3182    1.1898859 
 6405000    77.668856    9332.9952    1.1901179 
 6410000    76.874881    9537.3773      1.19035 
 6415000    77.528712    9380.2195    1.1905822 
 6420000    77.336346    9672.2724    1.1908144 
 6425000    77.157002    9239.6538    1.1910466 
 6430000    76.345477    9498.8841     1.191279 
 6435000    78.258711    9402.9537    1.1915114 
 6440000    77.206146    9452.5778    1.1917438 
 6445000    76.916776    9417.9218    1.1919763 
 6450000    77.606429    9231.1426    1.1922089 
 6455000    77.101764    9345.1771    1.1924415 
 6460000     78.27194     9376.302    1.1926742 
 6465000    77.997245    9313.7752     1.192907 
 6470000    77.780947    9226.7314    1.1931398 
 6475000    76.253445    9165.1658    1.1933726 
 6480000     77.73439    9076.4047    1.1936056 
 6485000    76.305296    9248.9165    1.1938386 
 6490000    77.306932    9073.3296    1.1940716 
 6495000    76.856076    9628.4508    1.1943047 
 6500000    78.135161    9728.1746    1.1945379 
 6505000    77.472496     9280.011    1.1947712 
 6510000     77.44524    9535.3168    1.1950045 
 6515000    77.042253    9338.0148    1.1952378 
 6520000    76.767137    9535.6984    1.1954712 
 6525000    76.724256    9603.9734    1.1957047 
 6530000    78.249503    9348.0217    1.1959383 
 6535000    77.121268    9466.1909    1.1961719 
 6540000    77.179127    9341.5341    1.1964055 
 6545000    76.025058    9354.5957    1.1966392 
 6550000    76.936736    9506.8328     1.196873 
 6555000    78.053911    9778.6349    1.1971069 
 6560000     76.00903    9189.8743    1.1973408 
 6565000    76.437754    9460.8835    1.1975747 
 6570000    74.854828    9708.7776    1.1978088 
 6575000    78.050581    9574.6495    1.1980429 
 6580000    77.775918    9609.8078     1.198277 
 6585000    76.240215    9697.9788    1.1985112 
 6590000    79.054385    9510.7098    1.1987455 
 6595000    76.863238    9805.7375    1.1989798 
 6600000    77.778729     9385.001    1.1992142 
 6605000    75.547543    9626.5484    1.1994487 
 6610000    77.504571     9615.341    1.1996832 
 6615000    76.105432     9476.038    1.1999178 
 6620000    76.699302    9564.7571    1.2001524 
 6625000    76.814132    9707.9962    1.2003871 
 6630000    77.464447    9372.5017    1.2006219 
 6635000    76.877833    9466.5156    1.2008567 
 6640000    79.312295    9553.7551    1.2010916 
 6645000    77.206271    9614.7763    1.2013265 
 6650000    77.114124    9640.5691    1.2015615 
 6655000     77.43018    9797.7558    1.2017966 
 6660000    77.551197    9823.8338    1.2020317 
 6665000    76.012586    9528.7053    1.2022669 
 6670000    77.269883    9608.8564    1.2025022 
 6675000    77.501942    9784.7568    1.2027375 
 6680000    77.164298     9488.155    1.2029729 
 6685000    76.402625    9482.9813    1.2032083 
 6690000    77.604854    9552.0761    1.2034438 
 6695000    77.027262    9461.8163    1.2036794 
 6700000    76.165679    9219.7105     1.203915 
 6705000    76.825731    9601.6175    1.2041507 
 6710000    77.251696    9545.7475    1.2043864 
 6715000     76.54716    9350.8783    1.2046222 
 6720000    76.685746    9154.3565    1.2048581 
 6725000    76.495007       9315.6     1.205094 
 6730000    78.226892    9494.4059      1.20533 
 6735000    76.890465    9464.8827     1.205566 
 6740000    77.917577    9568.3161    1.2058022 
 6745000    77.159603     9367.264    1.2060383 
 6750000    77.441253    9364.9318    1.2062746 
 6755000    76.818088    9406.3589    1.2065109 
 6760000    77.493089    9625.4041    1.2067472 
 6765000    78.193589    9353.5761    1.2069836 
 6770000    76.468428    9429.0321    1.2072201 
 6775000    79.435973    9705.5193    1.2074567 
 6780000     77.40438     9502.878    1.2076933 
 6785000    78.342119    9460.2749    1.2079299 
 6790000    77.201028    9579.0693    1.2081667 
 6795000    77.763596    9555.5129    1.2084035 
 6800000    75.783364    9396.6228    1.2086403 
 6805000    76.512031    9286.6947    1.2088772 
 6810000    77.941666    9656.7907    1.2091142 
 6815000    75.747994    9557.4207    1.2093513 
 6820000    76.763645    9717.5483    1.2095884 
 6825000    76.507502    9473.0371    1.2098255 
 6830000    77.676992    9572.7971    1.2100627 
 6835000    79.093548    9786.9119       1.2103 
 6840000    76.126291    9275.3739    1.2105374 
 6845000    77.156817    9747.8246    1.2107748 
 6850000    77.219579    9676.8635    1.2110123 
 6855000    77.996899    9613.0116    1.2112498 
 6860000     76.97416    9595.3885    1.2114874 
 6865000    78.218302    9756.6733    1.2117251 
 6870000    78.042322    9665.7441    1.2119628 
 6875000    76.192359    9488.4037    1.2122006 
 6880000    77.680137    9342.5068    1.2124384 
 6885000    77.319341    9306.9533    1.2126763 
 6890000    77.158652    9448.3827    1.2129143 
 6895000    77.143898     9535.026    1.2131523 
 6900000    76.755634    9649.2564    1.2133904 
 6905000    76.828297    9339.7168    1.2136286 
 6910000    77.097112     9528.873    1.2138668 
 6915000    77.278102    9557.0052    1.2141051 
 6920000    77.168741     9750.543    1.2143434 
 6925000     77.63055    9457.4743    1.2145818 
 6930000    76.418932    9661.9041    1.2148203 
 6935000     77.33132    9608.2821    1.2150588 
 6940000    76.628227    9683.5598    1.2152974 
 6945000    76.630209    9769.2204    1.2155361 
 6950000    78.408603    9632.8687    1.2157748 
 6955000    75.917736    9823.5774    1.2160136 
 6960000    78.321022    9958.1889    1.2162524 
 6965000    75.939176    9892.1907    1.2164914 
 6970000    77.161788    9861.1041    1.2167303 
 6975000     76.73756    9894.0281    1.2169694 
 6980000    76.929792     9832.184    1.2172085 
 6985000    78.236027    10190.136    1.2174476 
 6990000    77.173929    9723.9703    1.2176868 
 6995000    77.925607    9940.8681    1.2179261 
 7000000    76.368144    10012.715    1.2181655 
 7005000    77.036395     10193.07    1.2184049 
 7010000    76.630558    9938.5997    1.2186443 
 7015000    77.198879    9861.6259    1.2188839 
 7020000    76.066013    10074.177    1.2191235 
 7025000     77.51777    9987.5737    1.2193631 
 7030000    74.325097    9970.5096    1.2196029 
 7035000    77.177777    10288.173    1.2198426 
 7040000    78.200653    10339.588    1.2200825 
 7045000    77.409986    10213.724    1.2203224 
 7050000    76.880919    10135.623    1.2205624 
 7055000    78.099378    10259.232    1.2208024 
 7060000    76.426977    10356.023    1.2210425 
 7065000    76.249708    10003.979    1.2212827 
 7070000    77.536702    10369.877    1.2215229 
 7075000    77.295465    10407.572    1.2217632 
 7080000    77.206893    10388.912    1.2220035 
 7085000    76.159559    10418.861     1.222244 
 7090000    75.699447    10405.308    1.2224844 
 7095000    78.350395    10663.849     1.222725 
 7100000    77.073258     10216.09    1.2229656 
 7105000    77.696211    10102.329    1.2232063 
 7110000    75.327031    10581.869     1.223447 
 7115000    76.994352    10428.188    1.2236878 
 7120000    78.389429    10855.133    1.2239286 
 7125000    76.777914    10412.975    1.2241696 
 7130000    77.750395    10665.265    1.2244105 
 7135000    77.027457    10655.684    1.2246516 
 7140000    77.201817    10588.392    1.2248927 
 7145000    75.779741    10679.566    1.2251339 
 7150000    78.086765    10457.661    1.2253751 
 7155000    76.303602    10185.074    1.2256164 
 7160000    75.769513    10382.318    1.2258578 
 7165000    77.450525    10294.309    1.2260992 
 7170000    75.728136    10365.721    1.2263407 
 7175000    76.237194    10409.292    1.2265822 
 7180000    76.895688    10533.374    1.2268239 
 7185000    76.809179    10106.413    1.2270655 
 7190000    76.490342    10457.443    1.2273073 
 7195000    76.641817    10718.309    1.2275491 
 7200000    76.955884    10241.396     1.227791 
 7205000    78.309797    10658.436    1.2280329 
 7210000    77.339256    10464.338    1.2282749 
 7215000    76.935873      10462.5     1.228517 
 7220000    77.485058    10344.701    1.2287591 
 7225000    76.202054    10484.089    1.2290013 
 7230000    78.397155    10762.801    1.2292435 
 7235000    77.100667    10552.084    1.2294858 
 7240000     76.33953     10331.21    1.2297282 
 7245000    77.413407    10839.781    1.2299707 
 7250000    75.943065    10589.573    1.2302132 
 7255000    77.068818    10843.534    1.2304557 
 7260000     75.29654    10988.304    1.2306984 
 7265000     77.71516     10756.26    1.2309411 
 7270000    76.203072    10819.197    1.2311838 
 7275000    76.695107     10672.21    1.2314267 
 7280000    76.306648    10650.683    1.2316696 
 7285000    78.439833    10641.183    1.2319125 
 7290000    76.550708    10691.017    1.2321555 
 7295000    78.685156     10784.93    1.2323986 
 7300000     75.99855    10634.024    1.2326418 
 7305000    77.198259    10770.113     1.232885 
 7310000    77.921293    10610.585    1.2331282 
 7315000      76.2552    10864.356    1.2333716 
 7320000    77.460922    10748.288     1.233615 
 7325000    78.195027    10874.818    1.2338584 
 7330000    76.249686    10769.237     1.234102 
 7335000    76.046908    10949.337    1.2343456 
 7340000    78.078188    10607.198    1.2345892 
 7345000    76.419379    10800.106    1.2348329 
 7350000    76.249326    10951.366    1.2350767 
 7355000    77.333624    10850.705    1.2353206 
 7360000    77.162553    10781.376    1.2355645 
 7365000    76.845539    10623.727    1.2358085 
 7370000    77.310972     10852.51    1.2360525 
 7375000    76.234632    10568.131    1.2362966 
 7380000    77.014228    11087.018    1.2365408 
 7385000    76.417431     10996.57     1.236785 
 7390000     75.33673     10867.72    1.2370293 
 7395000    77.605701    11051.121    1.2372737 
 7400000    77.589876    10849.556    1.2375181 
 7405000    77.459325    11053.683    1.2377626 
 7410000    78.082628    11054.877    1.2380072 
 7415000    76.537522    10951.966    1.2382518 
 7420000    77.369733    11072.347    1.2384965 
 7425000    77.256771    10794.549    1.2387412 
 7430000    75.750577    11167.825    1.2389861 
 7435000    78.087092    11205.727    1.2392309 
 7440000    75.411217    10933.351    1.2394759 
 7445000    78.129228    11219.126    1.2397209 
 7450000    77.614216     11286.47     1.239966 
 7455000    75.596075     11253.73    1.2402111 
 7460000    78.793677      11350.2    1.2404563 
 7465000    76.310607    11241.987    1.2407016 
 7470000    77.821751    11399.861    1.2409469 
 7475000    77.708102    11451.416    1.2411923 
 7480000    76.704983    11486.275    1.2414378 
 7485000     77.79332    11316.729    1.2416833 
 7490000    76.749067    11468.421    1.2419289 
 7495000    77.127049    11361.487    1.2421745 
 7500000     77.52504    11411.899    1.2424203 
 7505000    75.690818    11255.123    1.2426661 
 7510000    77.273483    11360.453    1.2429119 
 7515000    75.736295    11433.157    1.2431578 
 7520000    77.000573    11601.006    1.2434038 
 7525000    75.339804    11253.341    1.2436498 
 7530000    77.084339    11426.528     1.243896 
 7535000    77.520888    11460.259    1.2441421 
 7540000    77.554505    11568.752    1.2443884 
 7545000     76.20582    11246.167    1.2446347 
 7550000    78.245776    11481.123     1.244881 
 7555000    76.305185    11163.792    1.2451275 
 7560000     77.69049    11007.947     1.245374 
 7565000    76.012107    11237.195    1.2456205 
 7570000    76.704223    11338.223    1.2458672 
 7575000    79.017792    11020.224    1.2461139 
 7580000    76.024731    11216.138    1.2463606 
 7585000    77.870954    11330.158    1.2466075 
 7590000    78.513486    11033.749    1.2468543 
 7595000    76.608973    11136.598    1.2471013 
 7600000    77.705543    11351.428    1.2473483 
 7605000     75.53878    11311.838    1.2475954 
 7610000    76.493417    11734.512    1.2478426 
 7615000    77.391514    11368.193    1.2480898 
 7620000    77.856371    11373.387    1.2483371 
 7625000    76.121606    11226.458    1.2485844 
 7630000    77.003515      11619.4    1.2488318 
 7635000    77.982034    11398.781    1.2490793 
 7640000    77.715366    11398.374    1.2493268 
 7645000    77.497914    11081.009    1.2495745 
 7650000    76.640315    11529.721    1.2498221 
 7655000    77.354965    11495.488    1.2500699 
 7660000    76.978684     11228.93    1.2503177 
 7665000    77.290478    11436.724    1.2505656 
 7670000     75.74606    11473.629    1.2508135 
 7675000    76.874289    11695.431    1.2510615 
 7680000    77.725709    11407.325    1.2513096 
 7685000    77.011621    11556.097    1.2515577 
 7690000    79.277619     11785.27    1.2518059 
 7695000    78.506328    11724.906    1.2520542 
 7700000    77.171827    11392.665    1.2523025 
 7705000    78.061705    11830.936    1.2525509 
 7710000    75.885654    11648.074    1.2527993 
 7715000    77.261131    11618.247    1.2530479 
 7720000    77.260741    11753.603    1.2532965 
 7725000    75.784712    11559.811    1.2535451 
 7730000     76.59515     11550.16    1.2537938 
 7735000     77.32301     11688.46    1.2540426 
 7740000    77.878337    11674.587    1.2542915 
 7745000    77.261183    11600.708    1.2545404 
 7750000    77.665996    11717.653    1.2547894 
 7755000    76.374239    12004.811    1.2550385 
 7760000    76.300153    11734.559    1.2552876 
 7765000      77.8133    11798.144    1.2555368 
 7770000    76.014237    11701.178     1.255786 
 7775000    77.710096    12135.775    1.2560353 
 7780000    77.328771    11792.873    1.2562847 
 7785000    77.644974     11786.11    1.2565342 
 7790000    77.025987    11866.871    1.2567837 
 7795000    77.336661    12271.788    1.2570333 
 7800000    76.207148    12211.315    1.2572829 
 7805000    76.518996     11962.24    1.2575326 
 7810000    76.621659    12075.042    1.2577824 
 7815000    76.537578    11976.232    1.2580323 
 7820000    78.031765    11697.855    1.2582822 
 7825000    77.627953    12068.648    1.2585321 
 7830000    76.203181    11980.234    1.2587822 
 7835000    76.405693    12214.948    1.2590323 
 7840000    76.544966    12171.814    1.2592825 
 7845000    78.203261    12288.258    1.2595327 
 7850000    76.903739     12290.46     1.259783 
 7855000    76.006288     12245.13    1.2600334 
 7860000     77.30869    12272.296    1.2602839 
 7865000    77.141076    12224.183    1.2605344 
 7870000    76.758209     12451.22    1.2607849 
 7875000    76.864352    12210.959    1.2610356 
 7880000    78.143207    12261.552    1.2612863 
 7885000    75.392472    12512.127    1.2615371 
 7890000     77.10391    12184.186    1.2617879 
[...]
 7940000     77.18808    12384.248       1.2643 
 7945000    78.405405    12494.895    1.2645516 
 7950000    78.090033    12454.089    1.2648032 
 7955000    76.419286     12395.51    1.2650549 
 7960000    77.095003    12339.877    1.2653067 
 7965000    76.571218    12225.276    1.2655585 
 7970000    76.658879    12401.009    1.2658104 
 7975000     76.51844    12106.501    1.2660624 
 7980000    77.886569    12151.679    1.2663144 
 7985000    77.897196    12421.237    1.2665666 
 7990000    77.211208    12410.085    1.2668187 
 7995000    77.652884    12435.131     1.267071 
 8000000    77.449308    12669.887    1.2673233 
 8005000     77.60769    12435.972    1.2675757 
 8010000    78.202475    12738.498    1.2678281 
 8015000    79.060034    12702.841    1.2680806 
 8020000    77.093124    12592.457    1.2683332 
 8025000    77.734594    12801.598    1.2685858 
 8030000     76.49842    12551.689    1.2688385 
 8035000    77.483281    12915.814    1.2690913 
 8040000    76.768547    12809.741    1.2693442 
 8045000    76.726441     13161.09    1.2695971 
 8050000    75.069658    12870.821    1.2698501 
 8055000    77.874697     13091.94    1.2701031 
 8060000    76.881117    12991.031    1.2703562 
 8065000    77.008594    13027.464    1.2706094 
 8070000    76.955816    13126.189    1.2708627 
 8075000    75.645385     13287.09     1.271116 
 8080000     77.04723    13156.545    1.2713694 
 8085000    79.018755    13241.706    1.2716228 
 8090000    74.998465    13284.445    1.2718763 
 8095000    78.231378    13197.732    1.2721299 
 8100000    76.175799    13299.342    1.2723836 
 8105000    77.063557    13170.219    1.2726373 
 8110000    76.754625    13167.082    1.2728911 
 8115000    76.832571    13334.966    1.2731449 
 8120000    75.529828    13401.838    1.2733989 
 8125000     76.19622    13503.939    1.2736529 
 8130000    76.079278    13651.748    1.2739069 
 8135000    77.548633    13669.288     1.274161 
 8140000    76.921006    13405.961    1.2744152 
 8145000    76.356857     13683.07    1.2746695 
 8150000    76.300148    13575.479    1.2749238 
 8155000    77.659904    13854.192    1.2751782 
 8160000    77.235401    13605.843    1.2754327 
 8165000    78.634723    13526.763    1.2756872 
 8170000     75.61164    13752.415    1.2759418 
 8175000     77.21434    13895.255    1.2761965 
 8180000    77.062107    13717.713    1.2764512 
 8185000    78.611837    13319.207     1.276706 
 8190000    76.593399     13712.46    1.2769609 
 8195000    76.731756    13616.007    1.2772158 
 8200000    77.507323    13734.177    1.2774708 
 8205000    76.319659    13885.175    1.2777259 
 8210000    77.077034    14025.223    1.2779811 
 8215000    75.415395    14010.884    1.2782363 
 8220000    76.757079    13919.243    1.2784915 
 8225000    78.127204     13829.79    1.2787469 
 8230000    76.246625    14164.872    1.2790023 
 8235000     78.22465    14303.271    1.2792578 
 8240000    76.306072    14592.952    1.2795133 
 8245000     77.24469    14216.028     1.279769 
 8250000    76.886072    14317.017    1.2800246 
 8255000    78.090248    13998.802    1.2802804 
 8260000    76.815397    14196.441    1.2805362 
 8265000    78.275962    14249.609    1.2807921 
 8270000    75.214774    14263.585    1.2810481 
 8275000    75.981179    14024.109    1.2813041 
 8280000    76.615927     14144.31    1.2815602 
 8285000    76.009453     14571.06    1.2818164 
 8290000    76.661188    14229.482    1.2820726 
 8295000    77.797963    14608.526    1.2823289 
 8300000    76.657066    14391.464    1.2825853 
 8305000    76.886494    14315.332    1.2828417 
 8310000    78.511038     14577.46    1.2830982 
 8315000    76.913399    14268.692    1.2833548 
 8320000    77.202087    14523.429    1.2836114 
 8325000    75.987317     14651.47    1.2838681 
 8330000    77.011934    14602.507    1.2841249 
 8335000     76.42304    14742.318    1.2843818 
 8340000     77.74628     14745.75    1.2846387 
 8345000       76.971    14787.798    1.2848957 
 8350000    77.941445    14492.231    1.2851527 
 8355000     77.18815     14755.06    1.2854098 
 8360000    78.166994    14894.248     1.285667 
 8365000    76.147761    14775.672    1.2859243 
 8370000     77.67826    15061.906    1.2861816 
 8375000    76.949648    14964.689     1.286439 
 8380000    78.050625    15052.483    1.2866965 
 8385000    76.597463    14721.436     1.286954 
 8390000    77.387071    14865.816    1.2872116 
 8395000    76.522115    14904.219    1.2874693 
 8400000    76.613875    15229.996     1.287727 
 8405000     76.96067    14990.903    1.2879848 
 8410000    77.094994     15060.27    1.2882427 
 8415000    77.089306    15227.882    1.2885007 
 8420000     76.34974    15492.314    1.2887587 
 8425000    78.191851    14972.594    1.2890168 
 8430000    77.187158    15298.614    1.2892749 
 8435000     76.59198      15122.7    1.2895331 
 8440000    78.011389     15078.77    1.2897914 
 8445000    75.545916    15440.494    1.2900498 
 8450000    78.248516    15272.522    1.2903082 
 8455000     76.81145    15300.266    1.2905667 
 8460000    76.300912    14998.958    1.2908253 
 8465000     76.06601    14975.581    1.2910839 
 8470000    77.230998    15027.938    1.2913426 
 8475000     76.15267    15140.518    1.2916014 
 8480000    78.763254    15086.988    1.2918602 
 8485000    76.317773    15359.786    1.2921192 
 8490000    78.729652    15461.946    1.2923781 
 8495000    76.755942    15367.384    1.2926372 
 8500000    75.967149    15404.111    1.2928963 
 8505000    78.419455    15509.557    1.2931555 
 8510000    76.084226     15559.61    1.2934148 
 8515000    77.170928    15651.367    1.2936741 
 8520000     76.64191    15427.576    1.2939335 
 8525000    76.695249     15618.32    1.2941929 
 8530000    77.303556     15391.77    1.2944525 
 8535000    75.042248    15859.497    1.2947121 
 8540000    77.337578    15186.264    1.2949718 
 8545000    76.576724    15597.209    1.2952315 
 8550000    77.515596    15417.721    1.2954913 
 8555000    76.716998    15725.912    1.2957512 
 8560000    76.864982    15445.307    1.2960112 
 8565000    77.643761    15374.527    1.2962712 
 8570000    76.754321    15403.147    1.2965313 
 8575000    75.624135     15143.07    1.2967914 
 8580000    77.289644    15377.129    1.2970517 
 8585000     77.15623    15434.881     1.297312 
 8590000     75.86262    15356.412    1.2975723 
 8595000    77.084554    15407.496    1.2978328 
 8600000    76.970501    15501.082    1.2980933 
 8605000    75.698503    15401.912    1.2983539 
 8610000    77.989121    15345.172    1.2986145 
 8615000     76.85376    15402.224    1.2988752 
 8620000    76.243519    15470.778     1.299136 
 8625000    77.718064    15325.412    1.2993969 
 8630000    77.131836    15611.963    1.2996578 
 8635000    76.959175    15979.636    1.2999188 
 8640000    77.183486    15556.076    1.3001799 
 8645000    77.909195     15848.59     1.300441 
 8650000     77.43344     15599.42    1.3007022 
 8655000    76.517606    16029.877    1.3009635 
 8660000    77.876271    16059.372    1.3012249 
 8665000    76.892391    15738.962    1.3014863 
 8670000    76.978334     15859.28    1.3017478 
 8675000    77.858559    16056.296    1.3020093 
 8680000     76.19925    16101.072     1.302271 
 8685000    77.462067    15892.126    1.3025327 
 8690000    76.801197    16376.098    1.3027944 
 8695000     76.27809    15980.283    1.3030563 
 8700000    76.648746     16115.51    1.3033182 
 8705000    76.450109    15909.315    1.3035801 
 8710000     77.31266    16037.718    1.3038422 
 8715000    76.888559    16138.764    1.3041043 
 8720000    77.891226    16170.357    1.3043665 
 8725000    76.622459    15917.183    1.3046288 
 8730000    77.739402      15922.1    1.3048911 
 8735000     77.98534    16382.745    1.3051535 
 8740000    77.352601    16286.792     1.305416 
 8745000    77.294657     16179.91    1.3056785 
 8750000    77.322008    16457.439    1.3059411 
 8755000    77.032672    16379.606    1.3062038 
 8760000    76.335434    16144.094    1.3064666 
 8765000    77.826888    16419.543    1.3067294 
 8770000    75.669884     16203.46    1.3069923 
 8775000    76.806212    16375.276    1.3072552 
 8780000    77.440137    16346.067    1.3075183 
 8785000    76.969199     16429.42    1.3077814 
 8790000     77.41145    16272.472    1.3080446 
 8795000    77.772076    16303.363    1.3083078 
 8800000    76.921761    16442.736    1.3085711 
 8805000    75.487302    16603.706    1.3088345 
 8810000     78.12541    16499.961     1.309098 
 8815000    76.472442    16320.452    1.3093615 
 8820000    75.548193    16557.951    1.3096251 
 8825000     77.40056    16639.806    1.3098888 
 8830000    77.351192    16525.219    1.3101525 
 8835000    76.074848    16665.561    1.3104163 
 8840000    75.845833    16517.846    1.3106802 
 8845000    76.140583    16396.505    1.3109442 
 8850000    77.925118    16597.904    1.3112082 
 8855000    76.413652    16905.539    1.3114723 
 8860000    76.441814     16735.22    1.3117365 
 8865000     76.52546    16509.193    1.3120007 
 8870000    77.379301    16934.436     1.312265 
 8875000    76.014762    16976.441    1.3125294 
 8880000    76.916336    17224.279    1.3127938 
 8885000    76.929935    17101.932    1.3130584 
 8890000    76.845212    16957.859    1.3133229 
 8895000    78.556384    17016.452    1.3135876 
 8900000    76.934398    17154.829    1.3138523 
 8905000    77.559606    16689.556    1.3141172 
 8910000      77.0183    16847.553     1.314382 
 8915000    77.410719    17136.543     1.314647 
 8920000    77.710464    16968.192     1.314912 
 8925000    76.515465    17046.199    1.3151771 
 8930000    77.650064     17103.91    1.3154423 
 8935000    77.399638    17270.912    1.3157075 
 8940000    76.324875    17247.987    1.3159728 
 8945000    77.576465    17038.331    1.3162382 
 8950000    76.976466    16903.693    1.3165036 
 8955000    75.419147    17253.547    1.3167691 
 8960000    79.502485    17322.023    1.3170347 
 8965000      76.7618    17418.198    1.3173004 
 8970000    77.923617    17311.341    1.3175661 
 8975000    76.940739    17035.992    1.3178319 
 8980000    78.351723    17061.422    1.3180978 
 8985000    75.734345    17556.078    1.3183638 
 8990000    76.930182    17331.417    1.3186298 
 8995000    75.659777    17531.572    1.3188959 
 9000000    78.302292    17568.116     1.319162 
 9005000    76.177812    17611.634    1.3194283 
 9010000    76.767358    17209.456    1.3196946 
 9015000    76.489953    17276.067    1.3199609 
 9020000    77.970857    17692.817    1.3202274 
 9025000     76.82146    17679.119    1.3204939 
 9030000    77.539968      17509.1    1.3207605 
 9035000    77.153963    17711.781    1.3210272 
 9040000    76.810411    17514.869    1.3212939 
 9045000    77.492615    17539.213    1.3215607 
 9050000     76.37612    17610.694    1.3218276 
 9055000    77.812951    17581.647    1.3220945 
 9060000    78.921549    17902.862    1.3223616 
 9065000    77.758054     17860.38    1.3226287 
 9070000     77.85162     17868.39    1.3228958 
 9075000     76.33113    17572.061    1.3231631 
 9080000    77.156204    17858.828    1.3234304 
 9085000    75.282788    18257.044    1.3236978 
 9090000     77.25823    17991.759    1.3239652 
 9095000    76.667204    17879.754    1.3242328 
 9100000    75.682139    17956.499    1.3245004 
 9105000    78.129338    17853.167     1.324768 
 9110000    76.922114    18178.171    1.3250358 
 9115000    77.401564    18004.673    1.3253036 
 9120000    77.182926    17954.242    1.3255715 
 9125000     76.40406    18415.666    1.3258394 
 9130000    76.600447    18201.658    1.3261075 
 9135000    76.902634    18331.145    1.3263756 
 9140000    75.685744    18239.862    1.3266438 
 9145000    78.225308     18176.17     1.326912 
 9150000    76.552032    18349.362    1.3271803 
 9155000    77.173357    18419.212    1.3274487 
 9160000    76.814351    18392.813    1.3277172 
 9165000    75.660989     18747.63    1.3279857 
 9170000    77.409238    18499.827    1.3282543 
 9175000     77.69154    18662.574     1.328523 
 9180000    77.377485    18635.776    1.3287918 
 9185000    78.494821    18677.776    1.3290606 
 9190000    78.081969    18977.951    1.3293295 
 9195000    78.095965    18826.725    1.3295985 
 9200000    77.199447    18853.854    1.3298675 
 9205000    76.184343    18725.301    1.3301366 
 9210000    76.596368    19115.391    1.3304058 
 9215000    76.451088    18952.034    1.3306751 
 9220000    76.546518     18873.48    1.3309444 
 9225000    74.934067    18862.414    1.3312138 
 9230000     76.83676    18671.249    1.3314833 
 9235000    77.771559    18766.153    1.3317529 
 9240000    76.628722    18840.078    1.3320225 
 9245000    77.119259    18968.259    1.3322922 
 9250000    76.687369    18858.929     1.332562 
 9255000     76.46927    18911.615    1.3328318 
 9260000      75.4609    18870.399    1.3331018 
 9265000    77.481944    18848.674    1.3333717 
 9270000    77.646819    19001.368    1.3336418 
 9275000    75.808896    19484.548     1.333912 
 9280000    77.498886    19104.651    1.3341822 
 9285000    77.592893    19123.598    1.3344524 
 9290000    77.695899    19134.172    1.3347228 
 9295000    76.773448    19210.036    1.3349932 
 9300000     75.12053    19443.032    1.3352637 
 9305000    75.897687    19341.241    1.3355343 
 9310000    77.345592    19345.468     1.335805 
 9315000    76.065891    19027.529    1.3360757 
 9320000    78.246822    19487.114    1.3363465 
 9325000    75.926781    19214.721    1.3366173 
 9330000    75.512197    19731.519    1.3368883 
 9335000    77.140932    19565.205    1.3371593 
 9340000    76.315903    19547.519    1.3374304 
 9345000    76.624452    19393.294    1.3377016 
 9350000    77.100164    19259.133    1.3379728 
 9355000    76.704783    19317.568    1.3382441 
 9360000    76.048118    19668.131    1.3385155 
 9365000    75.563857    19382.807    1.3387869 
 9370000    77.116222    19645.448    1.3390585 
 9375000      78.0442    19398.581    1.3393301 
 9380000    77.951076    19550.418    1.3396017 
 9385000    77.965222    20041.686    1.3398735 
 9390000    78.793949    19416.686    1.3401453 
 9395000    76.963682    19708.753    1.3404172 
 9400000    75.724559    19845.564    1.3406892 
 9405000    77.852324    19968.948    1.3409612 
 9410000     76.97067    19602.755    1.3412333 
 9415000    76.796367    19695.014    1.3415055 
 9420000    77.119092    19924.255    1.3417778 
 9425000      76.1635    19773.179    1.3420501 
 9430000    77.608111    19468.728    1.3423225 
 9435000    77.223845    20034.414     1.342595 
 9440000    78.236991    19966.073    1.3428676 
 9445000    76.687088    20052.252    1.3431402 
 9450000    77.498132    20134.296    1.3434129 
 9455000    77.337289    19993.918    1.3436857 
 9460000    75.845013    20167.657    1.3439586 
 9465000    78.705754    20106.837    1.3442315 
 9470000    77.500308    20344.593    1.3445045 
 9475000    76.837758    20593.625    1.3447776 
 9480000    76.897775    20525.332    1.3450507 
 9485000    76.344116     20514.15    1.3453239 
 9490000    78.636478    20532.323    1.3455972 
 9495000    76.544339    20457.153    1.3458706 
 9500000    77.018959    20526.987    1.3461441 
 9505000    77.014029    20709.125    1.3464176 
 9510000     76.28644    20879.217    1.3466912 
 9515000     77.16625    20496.936    1.3469648 
 9520000    77.116036    20652.813    1.3472386 
 9525000    77.484081    20842.539    1.3475124 
 9530000    75.372398    20905.237    1.3477863 
 9535000    76.917588     20851.16    1.3480603 
 9540000     77.27421    21117.501    1.3483343 
 9545000      77.6317    21036.131    1.3486084 
 9550000    78.466449     20925.29    1.3488826 
 9555000    75.767084     21253.77    1.3491569 
 9560000    78.052938     21117.74    1.3494312 
 9565000    77.189288     20872.06    1.3497056 
 9570000    77.620705    21134.378    1.3499801 
 9575000      76.7322    21056.354    1.3502547 
 9580000    77.537275    20925.866    1.3505293 
 9585000    75.667468    20974.463     1.350804 
 9590000    77.317682    21015.051    1.3510788 
 9595000    74.726173     21396.16    1.3513536 
 9600000    77.540696    21260.623    1.3516286 
 9605000    76.676642    21180.142    1.3519036 
 9610000    76.922592    21630.757    1.3521787 
 9615000    76.258395    21534.362    1.3524538 
 9620000    77.368492    21500.913     1.352729 
 9625000    76.612502    21723.054    1.3530043 
 9630000    78.298304    21836.013    1.3532797 
 9635000    76.197419    21408.098    1.3535552 
 9640000    76.881687    21614.434    1.3538307 
 9645000    76.516082    21901.357    1.3541063 
 9650000    78.469291    21888.342     1.354382 
 9655000    76.696533    21887.602    1.3546578 
 9660000    78.580342      21670.9    1.3549336 
 9665000    76.470656    21970.577    1.3552095 
 9670000    77.292171    21951.702    1.3554855 
 9675000    76.116088    21891.662    1.3557615 
 9680000    76.359654    21961.753    1.3560376 
 9685000    76.185472    21923.516    1.3563138 
 9690000    76.500384    22161.231    1.3565901 
 9695000    77.703105    22158.854    1.3568665 
 9700000    76.983435    22208.018    1.3571429 
 9705000     77.90049    22438.254    1.3574194 
 9710000    76.088426    22093.974     1.357696 
 9715000    77.943977    22598.594    1.3579726 
 9720000    74.706216    22815.468    1.3582494 
 9725000    78.049674    22589.065    1.3585262 
 9730000    76.011022    22179.467    1.3588031 
 9735000    77.091902    22310.677      1.35908 
 9740000    75.666431    22587.771     1.359357 
 9745000    76.038368    22529.667    1.3596342 
 9750000    78.461566    22444.342    1.3599113 
 9755000    78.290764    22559.444    1.3601886 
 9760000    76.995971    22582.127    1.3604659 
 9765000    76.838771    22471.223    1.3607433 
 9770000    77.861717    22401.514    1.3610208 
 9775000     76.55249    22502.403    1.3612984 
 9780000    77.518749    22453.139     1.361576 
 9785000    76.645143    22578.847    1.3618537 
 9790000     76.99492     22510.71    1.3621315 
 9795000     76.05191    22921.877    1.3624094 
 9800000    77.366788     22483.57    1.3626873 
 9805000    77.084128    22732.068    1.3629653 
 9810000    76.846882    22957.181    1.3632434 
 9815000    77.478183    22731.911    1.3635216 
 9820000    76.091542    22996.936    1.3637998 
 9825000    76.888145    22920.814    1.3640781 
 9830000    75.674887    22971.545    1.3643565 
 9835000    76.309853    22969.343     1.364635 
 9840000    76.038818    22925.664    1.3649135 
 9845000    76.165641    23143.205    1.3651921 
 9850000    76.989548    23384.498    1.3654708 
 9855000    77.088791    23093.228    1.3657496 
 9860000    77.894555    22908.259    1.3660284 
 9865000    74.788384    22801.238    1.3663073 
 9870000    77.107466    22793.664    1.3665863 
 9875000    78.219682     22819.16    1.3668654 
 9880000    75.884898    22763.777    1.3671446 
 9885000    77.643636    22821.514    1.3674238 
 9890000    78.100323    22913.157    1.3677031 
 9895000    76.911217    23097.629    1.3679825 
 9900000    77.622602    23067.448    1.3682619 
 9905000    77.668585    23020.746    1.3685414 
 9910000    76.468121     22976.06     1.368821 
 9915000    76.197528    23431.047    1.3691007 
 9920000    77.284892    23140.031    1.3693805 
 9925000    77.196233    23025.555    1.3696603 
 9930000    77.374122    22898.171    1.3699402 
 9935000    79.092312    22865.993    1.3702202 
 9940000    77.363285    22800.051    1.3705003 
 9945000    78.496327    22891.487    1.3707804 
 9950000    77.031217    23037.235    1.3710606 
 9955000    77.877472    22916.249    1.3713409 
 9960000    75.812151    23087.738    1.3716213 
 9965000    77.551801    23452.851    1.3719017 
 9970000    76.665645    23214.666    1.3721823 
 9975000    76.460582    23252.647    1.3724629 
